 Entering Gaussian System, Link 0=g16
 Input=/scratch/harms.n//autotst-2.0-QMScratch/ts/CCO+[O]O_OO+[CH2]CO/irc/CCO+[O]O_OO+[CH2]CO_irc_reverse_0.com
 Output=/scratch/harms.n//autotst-2.0-QMScratch/ts/CCO+[O]O_OO+[CH2]CO/irc/CCO+[O]O_OO+[CH2]CO_irc_reverse_0.log
 Initial command:
 /shared/centos7/gaussian/g16/l1.exe "/scratch/harms.n/gauss_scrdir/Gau-37360.inp" -scrdir="/scratch/harms.n/gauss_scrdir/"
 Entering Link 1 = /shared/centos7/gaussian/g16/l1.exe PID=     37361.
  
 Copyright (c) 1988,1990,1992,1993,1995,1998,2003,2009,2016,
            Gaussian, Inc.  All Rights Reserved.
  
 This is part of the Gaussian(R) 16 program.  It is based on
 the Gaussian(R) 09 system (copyright 2009, Gaussian, Inc.),
 the Gaussian(R) 03 system (copyright 2003, Gaussian, Inc.),
 the Gaussian(R) 98 system (copyright 1998, Gaussian, Inc.),
 the Gaussian(R) 94 system (copyright 1995, Gaussian, Inc.),
 the Gaussian 92(TM) system (copyright 1992, Gaussian, Inc.),
 the Gaussian 90(TM) system (copyright 1990, Gaussian, Inc.),
 the Gaussian 88(TM) system (copyright 1988, Gaussian, Inc.),
 the Gaussian 86(TM) system (copyright 1986, Carnegie Mellon
 University), and the Gaussian 82(TM) system (copyright 1983,
 Carnegie Mellon University). Gaussian is a federally registered
 trademark of Gaussian, Inc.
  
 This software contains proprietary and confidential information,
 including trade secrets, belonging to Gaussian, Inc.
  
 This software is provided under written license and may be
 used, copied, transmitted, or stored only in accord with that
 written license.
  
 The following legend is applicable only to US Government
 contracts under FAR:
  
                    RESTRICTED RIGHTS LEGEND
  
 Use, reproduction and disclosure by the US Government is
 subject to restrictions as set forth in subparagraphs (a)
 and (c) of the Commercial Computer Software - Restricted
 Rights clause in FAR 52.227-19.
  
 Gaussian, Inc.
 340 Quinnipiac St., Bldg. 40, Wallingford CT 06492
  
  
 ---------------------------------------------------------------
 Warning -- This program may not be used in any manner that
 competes with the business of Gaussian, Inc. or will provide
 assistance to any competitor of Gaussian, Inc.  The licensee
 of this program is prohibited from giving any competitor of
 Gaussian, Inc. access to this program.  By using this program,
 the user acknowledges that Gaussian, Inc. is engaged in the
 business of creating and licensing software in the field of
 computational chemistry and represents and warrants to the
 licensee that it is not a competitor of Gaussian, Inc. and that
 it will not use this program in any manner prohibited above.
 ---------------------------------------------------------------
  

 Cite this work as:
 Gaussian 16, Revision A.03,
 M. J. Frisch, G. W. Trucks, H. B. Schlegel, G. E. Scuseria, 
 M. A. Robb, J. R. Cheeseman, G. Scalmani, V. Barone, 
 G. A. Petersson, H. Nakatsuji, X. Li, M. Caricato, A. V. Marenich, 
 J. Bloino, B. G. Janesko, R. Gomperts, B. Mennucci, H. P. Hratchian, 
 J. V. Ortiz, A. F. Izmaylov, J. L. Sonnenberg, D. Williams-Young, 
 F. Ding, F. Lipparini, F. Egidi, J. Goings, B. Peng, A. Petrone, 
 T. Henderson, D. Ranasinghe, V. G. Zakrzewski, J. Gao, N. Rega, 
 G. Zheng, W. Liang, M. Hada, M. Ehara, K. Toyota, R. Fukuda, 
 J. Hasegawa, M. Ishida, T. Nakajima, Y. Honda, O. Kitao, H. Nakai, 
 T. Vreven, K. Throssell, J. A. Montgomery, Jr., J. E. Peralta, 
 F. Ogliaro, M. J. Bearpark, J. J. Heyd, E. N. Brothers, K. N. Kudin, 
 V. N. Staroverov, T. A. Keith, R. Kobayashi, J. Normand, 
 K. Raghavachari, A. P. Rendell, J. C. Burant, S. S. Iyengar, 
 J. Tomasi, M. Cossi, J. M. Millam, M. Klene, C. Adamo, R. Cammi, 
 J. W. Ochterski, R. L. Martin, K. Morokuma, O. Farkas, 
 J. B. Foresman, and D. J. Fox, Gaussian, Inc., Wallingford CT, 2016.
 
 ******************************************
 Gaussian 16:  EM64L-G16RevA.03 25-Dec-2016
                22-Jun-2019 
 ******************************************
 %nprocshared=20
 Will use up to   20 processors via shared memory.
 %mem=5GB
 ------------------------------
 #p m062x/cc-pVTZ irc=(calcall)
 ------------------------------
 1/10=4,18=10,26=3,38=1,44=3,71=1,172=1/1,23;
 2/12=2,17=6,18=5,29=1,40=1/2;
 3/5=16,6=1,11=2,25=1,30=1,71=2,74=-55,140=1/1,2,3;
 4//1;
 5/5=2,38=5/2;
 8/6=4,10=90,11=11/1;
 11/6=1,8=1,9=11,15=111,16=1/1,2,10;
 10/6=1,13=1/2;
 6/7=2,8=2,9=2,10=2,18=1,28=1/1;
 7/10=1,25=1/1,2,3,16;
 1/10=4,18=10,26=3,44=3,71=1/23(2);
 2/29=1/2;
 99/5=20/99;
 2/29=1/2;
 3/5=16,6=1,11=2,25=1,30=1,71=2,74=-55,140=1/1,2,3;
 4/5=5,16=3,69=1/1;
 5/5=2,38=5/2;
 8/6=4,10=90,11=11/1;
 11/6=1,8=1,9=11,15=111,16=1/1,2,10;
 10/6=1,13=1/2;
 7/10=1,25=1/1,2,3,16;
 1/10=4,18=10,26=3,44=3,71=1/23(-8);
 2/29=1/2;
 6/7=2,8=2,9=2,10=2,18=1,19=2,28=1/1;
 99/5=20/99;
 Leave Link    1 at Sat Jun 22 14:57:42 2019, MaxMem=   671088640 cpu:              15.3 elap:               0.8
 (Enter /shared/centos7/gaussian/g16/l101.exe)
 ------------------------------
 Gaussian input prepared by ASE
 ------------------------------
 Symbolic Z-matrix:
 Charge =  0 Multiplicity = 2
 O                    -0.53967  -1.11164  -0.40165 
 O                     1.88726  -0.37611   0.38241 
 O                     1.9031    0.77275  -0.24397 
 C                    -1.49875  -0.37079   0.36148 
 C                    -1.51995   1.09277  -0.02169 
 H                    -2.48251  -0.82825   0.23946 
 H                    -1.19799  -0.49726   1.40043 
 H                    -1.83296   1.21419  -1.06064 
 H                    -2.22563   1.63829   0.60392 
 H                    -0.64221  -0.88774  -1.33135 
 H                     1.01736  -0.78104   0.12312 
 H                    -0.52927   1.52996   0.09204 
 
 ITRead=  0  0  0  0  0  0  0  0  0  0  0  0
 MicOpt= -1 -1 -1 -1 -1 -1 -1 -1 -1 -1 -1 -1
 NAtoms=     12 NQM=       12 NQMF=       0 NMMI=      0 NMMIF=      0
                NMic=       0 NMicF=      0.
                    Isotopes and Nuclear Properties:
 (Nuclear quadrupole moments (NQMom) in fm**2, nuclear magnetic moments (NMagM)
  in nuclear magnetons)

  Atom         1           2           3           4           5           6           7           8           9          10
 IAtWgt=          16          16          16          12          12           1           1           1           1           1
 AtmWgt=  15.9949146  15.9949146  15.9949146  12.0000000  12.0000000   1.0078250   1.0078250   1.0078250   1.0078250   1.0078250
 NucSpn=           0           0           0           0           0           1           1           1           1           1
 AtZEff=  -0.0000000  -0.0000000  -0.0000000  -0.0000000  -0.0000000  -0.0000000  -0.0000000  -0.0000000  -0.0000000  -0.0000000
 NQMom=    0.0000000   0.0000000   0.0000000   0.0000000   0.0000000   0.0000000   0.0000000   0.0000000   0.0000000   0.0000000
 NMagM=    0.0000000   0.0000000   0.0000000   0.0000000   0.0000000   2.7928460   2.7928460   2.7928460   2.7928460   2.7928460
 AtZNuc=   8.0000000   8.0000000   8.0000000   6.0000000   6.0000000   1.0000000   1.0000000   1.0000000   1.0000000   1.0000000

  Atom        11          12
 IAtWgt=           1           1
 AtmWgt=   1.0078250   1.0078250
 NucSpn=           1           1
 AtZEff=  -0.0000000  -0.0000000
 NQMom=    0.0000000   0.0000000
 NMagM=    2.7928460   2.7928460
 AtZNuc=   1.0000000   1.0000000
 Leave Link  101 at Sat Jun 22 14:57:42 2019, MaxMem=   671088640 cpu:               3.6 elap:               0.2
 (Enter /shared/centos7/gaussian/g16/l123.exe)
 IRC-IRC-IRC-IRC-IRC-IRC-IRC-IRC-IRC-IRC-IRC-IRC-IRC-IRC-IRC-IRC-IRC-IRC
 ------------------------------------------------------------------------
 INPUT DATA FOR L123
 ------------------------------------------------------------------------
 GENERAL PARAMETERS:
 Follow reaction path in both directions.
 Maximum points per path      =  10
 Step size                    =   0.100 bohr
 Integration scheme           = HPC                                 
    Redo corrector integration= Yes                                 
    DWI Weight Power          =  2
    DWI will use Hessian update vectors when possible.
    Max correction cycles     =  20
 Initial Hessian              = CalcFC
 Hessian evaluation           = Analytic at all predictor steps
                              = Update at all corrector steps
 Hessian updating method      = Bofill                              
 ------------------------------------------------------------------------
 IRC-IRC-IRC-IRC-IRC-IRC-IRC-IRC-IRC-IRC-IRC-IRC-IRC-IRC-IRC-IRC-IRC-IRC
 Leave Link  123 at Sat Jun 22 14:57:42 2019, MaxMem=   671088640 cpu:               0.6 elap:               0.1
 (Enter /shared/centos7/gaussian/g16/l202.exe)
                          Input orientation:                          
 ---------------------------------------------------------------------
 Center     Atomic      Atomic             Coordinates (Angstroms)
 Number     Number       Type             X           Y           Z
 ---------------------------------------------------------------------
      1          8           0       -0.539674   -1.111638   -0.401648
      2          8           0        1.887258   -0.376114    0.382411
      3          8           0        1.903095    0.772746   -0.243972
      4          6           0       -1.498749   -0.370791    0.361475
      5          6           0       -1.519954    1.092774   -0.021693
      6          1           0       -2.482505   -0.828247    0.239459
      7          1           0       -1.197986   -0.497263    1.400432
      8          1           0       -1.832962    1.214191   -1.060644
      9          1           0       -2.225632    1.638286    0.603916
     10          1           0       -0.642210   -0.887739   -1.331349
     11          1           0        1.017357   -0.781038    0.123121
     12          1           0       -0.529272    1.529957    0.092042
 ---------------------------------------------------------------------
                    Distance matrix (angstroms):
                    1          2          3          4          5
     1  O    0.000000
     2  O    2.654382   0.000000
     3  O    3.089156   1.308620   0.000000
     4  C    1.432144   3.386076   3.639613   0.000000
     5  C    2.442283   3.732295   3.445155   1.513040   0.000000
     6  H    2.065411   4.395417   4.693652   1.091755   2.164492
     7  H    2.014528   3.251119   3.732786   1.088984   2.157387
     8  H    2.741596   4.295523   3.849669   2.155525   1.091849
     9  H    3.378712   4.585056   4.302843   2.150239   1.089473
    10  H    0.961763   3.097893   3.227720   1.966354   2.531416
    11  H    1.676014   0.993943   1.825797   2.560450   3.157545
    12  H    2.687352   3.091446   2.569569   2.150656   1.088814
                    6          7          8          9         10
     6  H    0.000000
     7  H    1.762781   0.000000
     8  H    2.506736   3.064174   0.000000
     9  H    2.506511   2.500213   1.762046   0.000000
    10  H    2.420261   2.814958   2.430901   3.554332   0.000000
    11  H    3.502113   2.572896   3.675127   4.074466   2.209305
    12  H    3.065612   2.503734   1.768616   1.775215   2.807855
                   11         12
    11  H    0.000000
    12  H    2.780958   0.000000
 Symmetry turned off by external request.
 Stoichiometry    C2H7O3(2)
 Framework group  C1[X(C2H7O3)]
 Deg. of freedom    30
 Full point group                 C1      NOp   1
 Rotational constants (GHZ):           7.3156130           2.4752688           2.0404667
 Leave Link  202 at Sat Jun 22 14:57:42 2019, MaxMem=   671088640 cpu:               0.1 elap:               0.0
 (Enter /shared/centos7/gaussian/g16/l301.exe)
 Standard basis: CC-pVTZ (5D, 7F)
 Ernie: Thresh=  0.10000D-02 Tol=  0.10000D-05 Strict=F.
 Ernie:  15 primitive shells out of 186 were deleted.
   248 basis functions,   379 primitive gaussians,   280 cartesian basis functions
    22 alpha electrons       21 beta electrons
       nuclear repulsion energy       186.4579890659 Hartrees.
 IExCor= 4336 DFT=T Ex+Corr=M062X ExCW=0 ScaHFX=  0.540000
 ScaDFX=  1.000000  1.000000  1.000000  1.000000 ScalE2=  1.000000  1.000000
 IRadAn=      5 IRanWt=     -1 IRanGd=            0 ICorTp=0 IEmpDi=  4
 NAtoms=   12 NActive=   12 NUniq=   12 SFac= 1.00D+00 NAtFMM=   60 NAOKFM=F Big=F
 Integral buffers will be    131072 words long.
 Raffenetti 2 integral format.
 Two-electron integral symmetry is turned off.
 Leave Link  301 at Sat Jun 22 14:57:42 2019, MaxMem=   671088640 cpu:               1.5 elap:               0.1
 (Enter /shared/centos7/gaussian/g16/l302.exe)
 NPDir=0 NMtPBC=     1 NCelOv=     1 NCel=       1 NClECP=     1 NCelD=      1
         NCelK=      1 NCelE2=     1 NClLst=     1 CellRange=     0.0.
 One-electron integrals computed using PRISM.
 NBasis=   248 RedAO= T EigKep=  9.68D-04  NBF=   248
 NBsUse=   248 1.00D-06 EigRej= -1.00D+00 NBFU=   248
 Precomputing XC quadrature grid using
 IXCGrd= 4 IRadAn=           5 IRanWt=          -1 IRanGd=           0 AccXCQ= 0.00D+00.
 Generated NRdTot=       0 NPtTot=           0 NUsed=           0 NTot=          32
 NSgBfM=   280   280   280   280   280 MxSgAt=    12 MxSgA2=    12.
 Leave Link  302 at Sat Jun 22 14:57:42 2019, MaxMem=   671088640 cpu:               4.7 elap:               0.3
 (Enter /shared/centos7/gaussian/g16/l303.exe)
 DipDrv:  MaxL=1.
 Leave Link  303 at Sat Jun 22 14:57:42 2019, MaxMem=   671088640 cpu:               1.8 elap:               0.1
 (Enter /shared/centos7/gaussian/g16/l401.exe)
 ExpMin= 1.03D-01 ExpMax= 1.53D+04 ExpMxC= 5.22D+02 IAcc=3 IRadAn=         5 AccDes= 0.00D+00
 Harris functional with IExCor= 1009 and IRadAn=       5 diagonalized for initial guess.
 HarFok:  IExCor= 1009 AccDes= 0.00D+00 IRadAn=         5 IDoV= 1 UseB2=F ITyADJ=14
 ICtDFT=  3500011 ScaDFX=  1.000000  1.000000  1.000000  1.000000
 FoFCou: FMM=F IPFlag=           0 FMFlag=      100000 FMFlg1=           0
         NFxFlg=           0 DoJE=T BraDBF=F KetDBF=T FulRan=T
         wScrn=  0.000000 ICntrl=       500 IOpCl=  0 I1Cent=   200000004 NGrid=           0
         NMat0=    1 NMatS0=      1 NMatT0=    0 NMatD0=    1 NMtDS0=    0 NMtDT0=    0
 Symmetry not used in FoFCou.
 Harris En= -305.817499703734    
 JPrj=0 DoOrth=F DoCkMO=F.
 Initial guess <Sx>= 0.0000 <Sy>= 0.0000 <Sz>= 0.5000 <S**2>= 0.7500 S= 0.5000
 Leave Link  401 at Sat Jun 22 14:57:43 2019, MaxMem=   671088640 cpu:              13.6 elap:               0.7
 (Enter /shared/centos7/gaussian/g16/l502.exe)
 Two-electron integral symmetry not used.
 UHF open shell SCF:
 Using DIIS extrapolation, IDIIS=  1040.
 NGot=   671088640 LenX=   670924296 LenY=   670845455
 Requested convergence on RMS density matrix=1.00D-08 within 128 cycles.
 Requested convergence on MAX density matrix=1.00D-06.
 Requested convergence on             energy=1.00D-06.
 No special actions if energy rises.
 Fock matrices will be formed incrementally for  20 cycles.
 Integral accuracy reduced to 1.0D-05 until final iterations.

 Cycle   1  Pass 0  IDiag  1:
 FoFJK:  IHMeth= 1 ICntrl=       0 DoSepK=F KAlg= 0 I1Cent=           0 FoldK=F
 IRaf= 970000000 NMat=       1 IRICut=       1 DoRegI=T DoRafI=F ISym2E= 0 IDoP0=0 IntGTp=1.
 FoFCou: FMM=F IPFlag=           0 FMFlag=      100000 FMFlg1=           0
         NFxFlg=           0 DoJE=F BraDBF=F KetDBF=F FulRan=T
         wScrn=  0.000000 ICntrl=         0 IOpCl=  1 I1Cent=           0 NGrid=           0
         NMat0=    1 NMatS0=      1 NMatT0=    0 NMatD0=    1 NMtDS0=    0 NMtDT0=    0
 Symmetry not used in FoFCou.
 E= -305.806634579040    
 DIIS: error= 2.89D-02 at cycle   1 NSaved=   1.
 NSaved= 1 IEnMin= 1 EnMin= -305.806634579040     IErMin= 1 ErrMin= 2.89D-02
 ErrMax= 2.89D-02  0.00D+00 EMaxC= 1.00D-01 BMatC= 8.01D-01 BMatP= 8.01D-01
 IDIUse=3 WtCom= 7.11D-01 WtEn= 2.89D-01
 Coeff-Com:  0.100D+01
 Coeff-En:   0.100D+01
 Coeff:      0.100D+01
 Gap=     0.417 Goal=   None    Shift=    0.000
 Gap=     0.278 Goal=   None    Shift=    0.000
 GapD=    0.278 DampG=1.000 DampE=0.500 DampFc=0.5000 IDamp=-1.
 Damping current iteration by 5.00D-01
 RMSDP=1.80D-03 MaxDP=6.94D-02              OVMax= 1.43D-01

 Cycle   2  Pass 0  IDiag  1:
 RMSU=  9.00D-04    CP:  9.99D-01
 E= -305.879308008565     Delta-E=       -0.072673429525 Rises=F Damp=T
 DIIS: error= 1.12D-02 at cycle   2 NSaved=   2.
 NSaved= 2 IEnMin= 2 EnMin= -305.879308008565     IErMin= 2 ErrMin= 1.12D-02
 ErrMax= 1.12D-02  0.00D+00 EMaxC= 1.00D-01 BMatC= 7.62D-02 BMatP= 8.01D-01
 IDIUse=3 WtCom= 8.88D-01 WtEn= 1.12D-01
 Coeff-Com: -0.132D+00 0.113D+01
 Coeff-En:   0.000D+00 0.100D+01
 Coeff:     -0.118D+00 0.112D+01
 Gap=     0.448 Goal=   None    Shift=    0.000
 Gap=     0.309 Goal=   None    Shift=    0.000
 RMSDP=4.41D-04 MaxDP=1.31D-02 DE=-7.27D-02 OVMax= 6.80D-02

 Cycle   3  Pass 0  IDiag  1:
 RMSU=  4.37D-04    CP:  1.00D+00  1.04D+00
 E= -305.945682914332     Delta-E=       -0.066374905767 Rises=F Damp=F
 DIIS: error= 5.11D-03 at cycle   3 NSaved=   3.
 NSaved= 3 IEnMin= 3 EnMin= -305.945682914332     IErMin= 3 ErrMin= 5.11D-03
 ErrMax= 5.11D-03  0.00D+00 EMaxC= 1.00D-01 BMatC= 2.04D-02 BMatP= 7.62D-02
 IDIUse=3 WtCom= 9.49D-01 WtEn= 5.11D-02
 Coeff-Com: -0.101D+00 0.386D+00 0.715D+00
 Coeff-En:   0.000D+00 0.000D+00 0.100D+01
 Coeff:     -0.961D-01 0.366D+00 0.730D+00
 Gap=     0.403 Goal=   None    Shift=    0.000
 Gap=     0.283 Goal=   None    Shift=    0.000
 RMSDP=1.88D-04 MaxDP=8.05D-03 DE=-6.64D-02 OVMax= 3.56D-02

 Cycle   4  Pass 0  IDiag  1:
 RMSU=  1.56D-04    CP:  1.00D+00  1.11D+00  8.06D-01
 E= -305.947785496746     Delta-E=       -0.002102582415 Rises=F Damp=F
 DIIS: error= 3.80D-03 at cycle   4 NSaved=   4.
 NSaved= 4 IEnMin= 4 EnMin= -305.947785496746     IErMin= 4 ErrMin= 3.80D-03
 ErrMax= 3.80D-03  0.00D+00 EMaxC= 1.00D-01 BMatC= 9.15D-03 BMatP= 2.04D-02
 IDIUse=3 WtCom= 9.62D-01 WtEn= 3.80D-02
 Coeff-Com: -0.394D-01 0.969D-01 0.434D+00 0.509D+00
 Coeff-En:   0.000D+00 0.000D+00 0.280D+00 0.720D+00
 Coeff:     -0.379D-01 0.932D-01 0.428D+00 0.517D+00
 Gap=     0.400 Goal=   None    Shift=    0.000
 Gap=     0.287 Goal=   None    Shift=    0.000
 RMSDP=8.79D-05 MaxDP=3.65D-03 DE=-2.10D-03 OVMax= 9.90D-03

 Cycle   5  Pass 0  IDiag  1:
 RMSU=  5.40D-05    CP:  1.00D+00  1.12D+00  8.92D-01  6.29D-01
 E= -305.949227816563     Delta-E=       -0.001442319817 Rises=F Damp=F
 DIIS: error= 9.43D-04 at cycle   5 NSaved=   5.
 NSaved= 5 IEnMin= 5 EnMin= -305.949227816563     IErMin= 5 ErrMin= 9.43D-04
 ErrMax= 9.43D-04  0.00D+00 EMaxC= 1.00D-01 BMatC= 2.38D-04 BMatP= 9.15D-03
 IDIUse=3 WtCom= 9.91D-01 WtEn= 9.43D-03
 Coeff-Com: -0.539D-02 0.652D-02 0.112D+00 0.175D+00 0.712D+00
 Coeff-En:   0.000D+00 0.000D+00 0.000D+00 0.000D+00 0.100D+01
 Coeff:     -0.534D-02 0.646D-02 0.111D+00 0.173D+00 0.715D+00
 Gap=     0.399 Goal=   None    Shift=    0.000
 Gap=     0.287 Goal=   None    Shift=    0.000
 RMSDP=2.59D-05 MaxDP=1.23D-03 DE=-1.44D-03 OVMax= 7.53D-03

 Cycle   6  Pass 0  IDiag  1:
 RMSU=  2.15D-05    CP:  1.00D+00  1.11D+00  9.15D-01  6.92D-01  9.72D-01
 E= -305.949298593183     Delta-E=       -0.000070776620 Rises=F Damp=F
 DIIS: error= 5.07D-04 at cycle   6 NSaved=   6.
 NSaved= 6 IEnMin= 6 EnMin= -305.949298593183     IErMin= 6 ErrMin= 5.07D-04
 ErrMax= 5.07D-04  0.00D+00 EMaxC= 1.00D-01 BMatC= 1.07D-04 BMatP= 2.38D-04
 IDIUse=3 WtCom= 9.95D-01 WtEn= 5.07D-03
 Coeff-Com:  0.462D-02-0.144D-01-0.225D-01-0.350D-01 0.347D+00 0.720D+00
 Coeff-En:   0.000D+00 0.000D+00 0.000D+00 0.000D+00 0.000D+00 0.100D+01
 Coeff:      0.459D-02-0.143D-01-0.224D-01-0.348D-01 0.346D+00 0.721D+00
 Gap=     0.400 Goal=   None    Shift=    0.000
 Gap=     0.288 Goal=   None    Shift=    0.000
 RMSDP=1.73D-05 MaxDP=7.38D-04 DE=-7.08D-05 OVMax= 3.17D-03

 Cycle   7  Pass 0  IDiag  1:
 RMSU=  9.59D-06    CP:  1.00D+00  1.11D+00  9.24D-01  7.15D-01  1.22D+00
                    CP:  1.12D+00
 E= -305.949333153549     Delta-E=       -0.000034560366 Rises=F Damp=F
 DIIS: error= 2.35D-04 at cycle   7 NSaved=   7.
 NSaved= 7 IEnMin= 7 EnMin= -305.949333153549     IErMin= 7 ErrMin= 2.35D-04
 ErrMax= 2.35D-04  0.00D+00 EMaxC= 1.00D-01 BMatC= 1.80D-05 BMatP= 1.07D-04
 IDIUse=3 WtCom= 9.98D-01 WtEn= 2.35D-03
 Coeff-Com:  0.323D-02-0.580D-02-0.418D-01-0.899D-01-0.124D+00 0.936D-01
 Coeff-Com:  0.116D+01
 Coeff-En:   0.000D+00 0.000D+00 0.000D+00 0.000D+00 0.000D+00 0.000D+00
 Coeff-En:   0.100D+01
 Coeff:      0.322D-02-0.579D-02-0.417D-01-0.897D-01-0.124D+00 0.934D-01
 Coeff:      0.116D+01
 Gap=     0.400 Goal=   None    Shift=    0.000
 Gap=     0.288 Goal=   None    Shift=    0.000
 RMSDP=1.59D-05 MaxDP=5.82D-04 DE=-3.46D-05 OVMax= 4.56D-03

 Cycle   8  Pass 0  IDiag  1:
 RMSU=  4.90D-06    CP:  1.00D+00  1.11D+00  9.32D-01  7.30D-01  1.42D+00
                    CP:  1.52D+00  1.45D+00
 E= -305.949349069206     Delta-E=       -0.000015915657 Rises=F Damp=F
 DIIS: error= 8.29D-05 at cycle   8 NSaved=   8.
 NSaved= 8 IEnMin= 8 EnMin= -305.949349069206     IErMin= 8 ErrMin= 8.29D-05
 ErrMax= 8.29D-05  0.00D+00 EMaxC= 1.00D-01 BMatC= 2.94D-06 BMatP= 1.80D-05
 IDIUse=1 WtCom= 1.00D+00 WtEn= 0.00D+00
 Coeff-Com: -0.802D-03 0.249D-02 0.611D-02 0.361D-03-0.382D-01-0.156D+00
 Coeff-Com:  0.228D-01 0.116D+01
 Coeff:     -0.802D-03 0.249D-02 0.611D-02 0.361D-03-0.382D-01-0.156D+00
 Coeff:      0.228D-01 0.116D+01
 Gap=     0.400 Goal=   None    Shift=    0.000
 Gap=     0.288 Goal=   None    Shift=    0.000
 RMSDP=6.60D-06 MaxDP=2.65D-04 DE=-1.59D-05 OVMax= 1.87D-03

 Initial convergence to 1.0D-05 achieved.  Increase integral accuracy.
 Cycle   9  Pass 1  IDiag  1:
 E= -305.949324577693     Delta-E=        0.000024491513 Rises=F Damp=F
 DIIS: error= 4.35D-05 at cycle   1 NSaved=   1.
 NSaved= 1 IEnMin= 1 EnMin= -305.949324577693     IErMin= 1 ErrMin= 4.35D-05
 ErrMax= 4.35D-05  0.00D+00 EMaxC= 1.00D-01 BMatC= 1.96D-06 BMatP= 1.96D-06
 IDIUse=1 WtCom= 1.00D+00 WtEn= 0.00D+00
 Coeff-Com:  0.100D+01
 Coeff:      0.100D+01
 Gap=     0.401 Goal=   None    Shift=    0.000
 Gap=     0.288 Goal=   None    Shift=    0.000
 RMSDP=6.60D-06 MaxDP=2.65D-04 DE= 2.45D-05 OVMax= 2.59D-04

 Cycle  10  Pass 1  IDiag  1:
 RMSU=  5.10D-06    CP:  1.00D+00
 E= -305.949324943873     Delta-E=       -0.000000366180 Rises=F Damp=F
 DIIS: error= 3.60D-05 at cycle   2 NSaved=   2.
 NSaved= 2 IEnMin= 2 EnMin= -305.949324943873     IErMin= 2 ErrMin= 3.60D-05
 ErrMax= 3.60D-05  0.00D+00 EMaxC= 1.00D-01 BMatC= 3.35D-07 BMatP= 1.96D-06
 IDIUse=1 WtCom= 1.00D+00 WtEn= 0.00D+00
 Coeff-Com:  0.186D+00 0.814D+00
 Coeff:      0.186D+00 0.814D+00
 Gap=     0.400 Goal=   None    Shift=    0.000
 Gap=     0.288 Goal=   None    Shift=    0.000
 RMSDP=1.11D-06 MaxDP=4.96D-05 DE=-3.66D-07 OVMax= 2.56D-04

 Cycle  11  Pass 1  IDiag  1:
 RMSU=  1.10D-06    CP:  1.00D+00  1.03D+00
 E= -305.949325028966     Delta-E=       -0.000000085092 Rises=F Damp=F
 DIIS: error= 2.02D-05 at cycle   3 NSaved=   3.
 NSaved= 3 IEnMin= 3 EnMin= -305.949325028966     IErMin= 3 ErrMin= 2.02D-05
 ErrMax= 2.02D-05  0.00D+00 EMaxC= 1.00D-01 BMatC= 2.50D-07 BMatP= 3.35D-07
 IDIUse=1 WtCom= 1.00D+00 WtEn= 0.00D+00
 Coeff-Com: -0.326D-01 0.453D+00 0.580D+00
 Coeff:     -0.326D-01 0.453D+00 0.580D+00
 Gap=     0.400 Goal=   None    Shift=    0.000
 Gap=     0.288 Goal=   None    Shift=    0.000
 RMSDP=6.57D-07 MaxDP=3.31D-05 DE=-8.51D-08 OVMax= 1.19D-04

 Cycle  12  Pass 1  IDiag  1:
 RMSU=  6.01D-07    CP:  1.00D+00  1.08D+00  9.48D-01
 E= -305.949325090161     Delta-E=       -0.000000061195 Rises=F Damp=F
 DIIS: error= 1.19D-05 at cycle   4 NSaved=   4.
 NSaved= 4 IEnMin= 4 EnMin= -305.949325090161     IErMin= 4 ErrMin= 1.19D-05
 ErrMax= 1.19D-05  0.00D+00 EMaxC= 1.00D-01 BMatC= 2.84D-08 BMatP= 2.50D-07
 IDIUse=1 WtCom= 1.00D+00 WtEn= 0.00D+00
 Coeff-Com: -0.376D-01 0.864D-01 0.168D+00 0.783D+00
 Coeff:     -0.376D-01 0.864D-01 0.168D+00 0.783D+00
 Gap=     0.400 Goal=   None    Shift=    0.000
 Gap=     0.288 Goal=   None    Shift=    0.000
 RMSDP=4.57D-07 MaxDP=2.70D-05 DE=-6.12D-08 OVMax= 1.26D-04

 Cycle  13  Pass 1  IDiag  1:
 RMSU=  2.96D-07    CP:  1.00D+00  1.11D+00  1.14D+00  1.41D+00
 E= -305.949325114237     Delta-E=       -0.000000024076 Rises=F Damp=F
 DIIS: error= 6.64D-06 at cycle   5 NSaved=   5.
 NSaved= 5 IEnMin= 5 EnMin= -305.949325114237     IErMin= 5 ErrMin= 6.64D-06
 ErrMax= 6.64D-06  0.00D+00 EMaxC= 1.00D-01 BMatC= 2.14D-08 BMatP= 2.84D-08
 IDIUse=1 WtCom= 1.00D+00 WtEn= 0.00D+00
 Coeff-Com:  0.133D-01-0.268D+00-0.451D+00 0.380D+00 0.133D+01
 Coeff:      0.133D-01-0.268D+00-0.451D+00 0.380D+00 0.133D+01
 Gap=     0.400 Goal=   None    Shift=    0.000
 Gap=     0.288 Goal=   None    Shift=    0.000
 RMSDP=8.50D-07 MaxDP=3.76D-05 DE=-2.41D-08 OVMax= 2.67D-04

 Cycle  14  Pass 1  IDiag  1:
 RMSU=  2.33D-07    CP:  1.00D+00  1.14D+00  1.49D+00  2.48D+00  1.83D+00
 E= -305.949325144178     Delta-E=       -0.000000029941 Rises=F Damp=F
 DIIS: error= 3.74D-06 at cycle   6 NSaved=   6.
 NSaved= 6 IEnMin= 6 EnMin= -305.949325144178     IErMin= 6 ErrMin= 3.74D-06
 ErrMax= 3.74D-06  0.00D+00 EMaxC= 1.00D-01 BMatC= 3.46D-09 BMatP= 2.14D-08
 IDIUse=1 WtCom= 1.00D+00 WtEn= 0.00D+00
 Coeff-Com:  0.822D-02-0.855D-01-0.158D+00 0.459D-01 0.367D+00 0.822D+00
 Coeff:      0.822D-02-0.855D-01-0.158D+00 0.459D-01 0.367D+00 0.822D+00
 Gap=     0.400 Goal=   None    Shift=    0.000
 Gap=     0.288 Goal=   None    Shift=    0.000
 RMSDP=2.96D-07 MaxDP=1.66D-05 DE=-2.99D-08 OVMax= 1.11D-04

 Cycle  15  Pass 1  IDiag  1:
 RMSU=  9.16D-08    CP:  1.00D+00  1.15D+00  1.59D+00  2.77D+00  2.25D+00
                    CP:  1.61D+00
 E= -305.949325150959     Delta-E=       -0.000000006782 Rises=F Damp=F
 DIIS: error= 3.29D-06 at cycle   7 NSaved=   7.
 NSaved= 7 IEnMin= 7 EnMin= -305.949325150959     IErMin= 7 ErrMin= 3.29D-06
 ErrMax= 3.29D-06  0.00D+00 EMaxC= 1.00D-01 BMatC= 2.31D-09 BMatP= 3.46D-09
 IDIUse=1 WtCom= 1.00D+00 WtEn= 0.00D+00
 Coeff-Com: -0.444D-02 0.113D+00 0.187D+00-0.189D+00-0.592D+00 0.281D+00
 Coeff-Com:  0.121D+01
 Coeff:     -0.444D-02 0.113D+00 0.187D+00-0.189D+00-0.592D+00 0.281D+00
 Coeff:      0.121D+01
 Gap=     0.400 Goal=   None    Shift=    0.000
 Gap=     0.288 Goal=   None    Shift=    0.000
 RMSDP=4.37D-07 MaxDP=2.35D-05 DE=-6.78D-09 OVMax= 1.69D-04

 Cycle  16  Pass 1  IDiag  1:
 RMSU=  1.22D-07    CP:  1.00D+00  1.16D+00  1.72D+00  3.00D+00  2.90D+00
                    CP:  2.71D+00  2.08D+00
 E= -305.949325159172     Delta-E=       -0.000000008213 Rises=F Damp=F
 DIIS: error= 2.55D-06 at cycle   8 NSaved=   8.
 NSaved= 8 IEnMin= 8 EnMin= -305.949325159172     IErMin= 8 ErrMin= 2.55D-06
 ErrMax= 2.55D-06  0.00D+00 EMaxC= 1.00D-01 BMatC= 1.32D-09 BMatP= 2.31D-09
 IDIUse=1 WtCom= 1.00D+00 WtEn= 0.00D+00
 Coeff-Com: -0.621D-02 0.637D-01 0.130D+00-0.615D-01-0.248D+00-0.642D+00
 Coeff-Com:  0.190D-01 0.174D+01
 Coeff:     -0.621D-02 0.637D-01 0.130D+00-0.615D-01-0.248D+00-0.642D+00
 Coeff:      0.190D-01 0.174D+01
 Gap=     0.400 Goal=   None    Shift=    0.000
 Gap=     0.288 Goal=   None    Shift=    0.000
 RMSDP=6.28D-07 MaxDP=3.37D-05 DE=-8.21D-09 OVMax= 2.44D-04

 Cycle  17  Pass 1  IDiag  1:
 RMSU=  4.20D-07    CP:  1.00D+00  1.17D+00  1.89D+00  3.00D+00  3.00D+00
                    CP:  3.00D+00  3.00D+00  3.00D+00
 E= -305.949325167417     Delta-E=       -0.000000008246 Rises=F Damp=F
 DIIS: error= 1.49D-06 at cycle   9 NSaved=   9.
 NSaved= 9 IEnMin= 9 EnMin= -305.949325167417     IErMin= 9 ErrMin= 1.49D-06
 ErrMax= 1.49D-06  0.00D+00 EMaxC= 1.00D-01 BMatC= 5.36D-10 BMatP= 1.32D-09
 IDIUse=1 WtCom= 1.00D+00 WtEn= 0.00D+00
 Coeff-Com:  0.185D-02-0.671D-01-0.958D-01 0.992D-01 0.395D+00-0.363D+00
 Coeff-Com: -0.789D+00 0.168D+00 0.165D+01
 Coeff:      0.185D-02-0.671D-01-0.958D-01 0.992D-01 0.395D+00-0.363D+00
 Coeff:     -0.789D+00 0.168D+00 0.165D+01
 Gap=     0.400 Goal=   None    Shift=    0.000
 Gap=     0.288 Goal=   None    Shift=    0.000
 RMSDP=6.62D-07 MaxDP=3.48D-05 DE=-8.25D-09 OVMax= 2.57D-04

 Cycle  18  Pass 1  IDiag  1:
 RMSU=  2.75D-07    CP:  1.00D+00  1.18D+00  2.08D+00  3.00D+00  3.00D+00
                    CP:  3.00D+00  3.00D+00  3.00D+00  2.34D+00
 E= -305.949325171532     Delta-E=       -0.000000004115 Rises=F Damp=F
 DIIS: error= 4.08D-07 at cycle  10 NSaved=  10.
 NSaved=10 IEnMin=10 EnMin= -305.949325171532     IErMin=10 ErrMin= 4.08D-07
 ErrMax= 4.08D-07  0.00D+00 EMaxC= 1.00D-01 BMatC= 9.18D-11 BMatP= 5.36D-10
 IDIUse=1 WtCom= 1.00D+00 WtEn= 0.00D+00
 Coeff-Com:  0.230D-02-0.407D-01-0.661D-01 0.455D-01 0.211D+00 0.309D-01
 Coeff-Com: -0.263D+00-0.410D+00 0.573D+00 0.917D+00
 Coeff:      0.230D-02-0.407D-01-0.661D-01 0.455D-01 0.211D+00 0.309D-01
 Coeff:     -0.263D+00-0.410D+00 0.573D+00 0.917D+00
 Gap=     0.400 Goal=   None    Shift=    0.000
 Gap=     0.288 Goal=   None    Shift=    0.000
 RMSDP=1.98D-07 MaxDP=9.86D-06 DE=-4.11D-09 OVMax= 7.66D-05

 Cycle  19  Pass 1  IDiag  1:
 RMSU=  1.88D-08    CP:  1.00D+00  1.18D+00  2.13D+00  3.00D+00  3.00D+00
                    CP:  3.00D+00  3.00D+00  3.00D+00  2.74D+00  1.31D+00
 E= -305.949325171840     Delta-E=       -0.000000000308 Rises=F Damp=F
 DIIS: error= 1.00D-07 at cycle  11 NSaved=  11.
 NSaved=11 IEnMin=11 EnMin= -305.949325171840     IErMin=11 ErrMin= 1.00D-07
 ErrMax= 1.00D-07  0.00D+00 EMaxC= 1.00D-01 BMatC= 5.36D-12 BMatP= 9.18D-11
 IDIUse=1 WtCom= 1.00D+00 WtEn= 0.00D+00
 Coeff-Com: -0.106D-03 0.661D-02 0.971D-02-0.128D-01-0.378D-01 0.428D-01
 Coeff-Com:  0.934D-01-0.308D-01-0.203D+00 0.436D-01 0.109D+01
 Coeff:     -0.106D-03 0.661D-02 0.971D-02-0.128D-01-0.378D-01 0.428D-01
 Coeff:      0.934D-01-0.308D-01-0.203D+00 0.436D-01 0.109D+01
 Gap=     0.400 Goal=   None    Shift=    0.000
 Gap=     0.288 Goal=   None    Shift=    0.000
 RMSDP=3.10D-08 MaxDP=1.51D-06 DE=-3.08D-10 OVMax= 1.15D-05

 Cycle  20  Pass 1  IDiag  1:
 RMSU=  6.60D-09    CP:  1.00D+00  1.19D+00  2.14D+00  3.00D+00  3.00D+00
                    CP:  3.00D+00  3.00D+00  3.00D+00  2.80D+00  1.37D+00
                    CP:  1.26D+00
 E= -305.949325171837     Delta-E=        0.000000000004 Rises=F Damp=F
 DIIS: error= 2.01D-08 at cycle  12 NSaved=  12.
 NSaved=12 IEnMin=11 EnMin= -305.949325171840     IErMin=12 ErrMin= 2.01D-08
 ErrMax= 2.01D-08  0.00D+00 EMaxC= 1.00D-01 BMatC= 3.27D-13 BMatP= 5.36D-12
 IDIUse=1 WtCom= 1.00D+00 WtEn= 0.00D+00
 Coeff-Com: -0.165D-03 0.318D-02 0.531D-02-0.438D-02-0.169D-01 0.169D-02
 Coeff-Com:  0.267D-01 0.229D-01-0.567D-01-0.534D-01 0.930D-01 0.979D+00
 Coeff:     -0.165D-03 0.318D-02 0.531D-02-0.438D-02-0.169D-01 0.169D-02
 Coeff:      0.267D-01 0.229D-01-0.567D-01-0.534D-01 0.930D-01 0.979D+00
 Gap=     0.400 Goal=   None    Shift=    0.000
 Gap=     0.288 Goal=   None    Shift=    0.000
 RMSDP=3.28D-09 MaxDP=1.72D-07 DE= 3.64D-12 OVMax= 1.00D-06

 SCF Done:  E(UM062X) =  -305.949325172     A.U. after   20 cycles
            NFock= 20  Conv=0.33D-08     -V/T= 2.0051
 <Sx>= 0.0000 <Sy>= 0.0000 <Sz>= 0.5000 <S**2>= 0.7548 S= 0.5024
 <L.S>= 0.000000000000E+00
 KE= 3.043925192554D+02 PE=-1.091999806899D+03 EE= 2.951999734057D+02
 Annihilation of the first spin contaminant:
 S**2 before annihilation     0.7548,   after     0.7500
 Leave Link  502 at Sat Jun 22 14:58:27 2019, MaxMem=   671088640 cpu:             882.1 elap:              44.2
 (Enter /shared/centos7/gaussian/g16/l801.exe)
 DoSCS=F DFT=T ScalE2(SS,OS)=  1.000000  1.000000
 Range of M.O.s used for correlation:     1   248
 NBasis=   248 NAE=    22 NBE=    21 NFC=     0 NFV=     0
 NROrb=    248 NOA=    22 NOB=    21 NVA=   226 NVB=   227

 **** Warning!!: The largest alpha MO coefficient is  0.11960617D+02


 **** Warning!!: The largest beta MO coefficient is  0.11960628D+02

 Leave Link  801 at Sat Jun 22 14:58:27 2019, MaxMem=   671088640 cpu:               0.7 elap:               0.1
 (Enter /shared/centos7/gaussian/g16/l1101.exe)
 Using compressed storage, NAtomX=    12.
 Will process     13 centers per pass.
 Leave Link 1101 at Sat Jun 22 14:58:28 2019, MaxMem=   671088640 cpu:               5.5 elap:               0.3
 (Enter /shared/centos7/gaussian/g16/l1102.exe)
 Symmetrizing basis deriv contribution to polar:
 IMax=3 JMax=2 DiffMx= 0.00D+00
 Leave Link 1102 at Sat Jun 22 14:58:28 2019, MaxMem=   671088640 cpu:               1.1 elap:               0.1
 (Enter /shared/centos7/gaussian/g16/l1110.exe)
 Forming Gx(P) for the SCF density, NAtomX=    12.
 Integral derivatives from FoFJK, PRISM(SPDF).
 Do as many integral derivatives as possible in FoFJK.
 G2DrvN: MDV=     671087640.
 G2DrvN: will do    13 centers at a time, making    1 passes.
 Calling FoFCou, ICntrl=  3107 FMM=F I1Cent=   0 AccDes= 0.00D+00.
 FoFJK:  IHMeth= 1 ICntrl=    3107 DoSepK=F KAlg= 0 I1Cent=           0 FoldK=F
 IRaf=         0 NMat=       1 IRICut=       1 DoRegI=T DoRafI=F ISym2E= 0 IDoP0=0 IntGTp=1.
 FoFCou: FMM=F IPFlag=           0 FMFlag=      100000 FMFlg1=           0
         NFxFlg=           0 DoJE=F BraDBF=F KetDBF=F FulRan=T
         wScrn=  0.000000 ICntrl=      3107 IOpCl=  1 I1Cent=           0 NGrid=           0
         NMat0=    1 NMatS0=      1 NMatT0=    0 NMatD0=    1 NMtDS0=    0 NMtDT0=    0
 Symmetry not used in FoFCou.
 End of G2Drv F.D. properties file   721 does not exist.
 End of G2Drv F.D. properties file   722 does not exist.
 End of G2Drv F.D. properties file   788 does not exist.
 Leave Link 1110 at Sat Jun 22 14:59:35 2019, MaxMem=   671088640 cpu:            1335.2 elap:              66.8
 (Enter /shared/centos7/gaussian/g16/l1002.exe)
 Minotr:  UHF open shell wavefunction.
          IDoAtm=111111111111
          Direct CPHF calculation.
          Differentiating once with respect to nuclear coordinates.
          Requested convergence is 1.0D-08 RMS, and 1.0D-07 maximum.
          Secondary convergence is 1.0D-12 RMS, and 1.0D-12 maximum.
          NewPWx=T KeepS1=F KeepF1=F KeepIn=T MapXYZ=F SortEE=F KeepMc=T.
         3577 words used for storage of precomputed grid.
 Two-electron integral symmetry not used.
          MDV=     671088640 using IRadAn=       1.
          Solving linear equations simultaneously, MaxMat=     380.
 FoF2E skips out because all densities are zero.
 CalDSu exits because no D1Ps are significant.
 FoFJK:  IHMeth= 1 ICntrl=       0 DoSepK=F KAlg= 0 I1Cent=           0 FoldK=F
 IRaf= 960000000 NMat=      36 IRICut=      90 DoRegI=T DoRafI=T ISym2E= 0 IDoP0=3 IntGTp=3.
 FoFCou: FMM=F IPFlag=           0 FMFlag=      100000 FMFlg1=           0
         NFxFlg=           0 DoJE=F BraDBF=F KetDBF=F FulRan=T
         wScrn=  0.000000 ICntrl=         0 IOpCl=  1 I1Cent=           0 NGrid=           0
         NMat0=   36 NMatS0=     36 NMatT0=    0 NMatD0=   36 NMtDS0=    0 NMtDT0=    0
 Symmetry not used in FoFCou.
 Raff kept on since  94.62% of shell-pairs survive, threshold=   0.20 IRatSp=95.
          There are    39 degrees of freedom in the 1st order CPHF.  IDoFFX=6 NUNeed=     0.
     33 vectors produced by pass  0 Test12= 2.50D-14 2.56D-09 XBig12= 1.38D-01 1.11D-01.
 AX will form    33 AO Fock derivatives at one time.
     33 vectors produced by pass  1 Test12= 2.50D-14 2.56D-09 XBig12= 1.40D-02 4.06D-02.
     33 vectors produced by pass  2 Test12= 2.50D-14 2.56D-09 XBig12= 1.02D-03 1.44D-02.
     33 vectors produced by pass  3 Test12= 2.50D-14 2.56D-09 XBig12= 2.49D-05 7.46D-04.
     33 vectors produced by pass  4 Test12= 2.50D-14 2.56D-09 XBig12= 3.32D-07 8.05D-05.
     33 vectors produced by pass  5 Test12= 2.50D-14 2.56D-09 XBig12= 3.67D-09 7.62D-06.
     31 vectors produced by pass  6 Test12= 2.50D-14 2.56D-09 XBig12= 3.84D-11 9.45D-07.
     13 vectors produced by pass  7 Test12= 2.50D-14 2.56D-09 XBig12= 2.85D-13 8.24D-08.
      1 vectors produced by pass  8 Test12= 2.50D-14 2.56D-09 XBig12= 2.23D-15 4.83D-09.
 InvSVY:  IOpt=1 It=  1 EMax= 1.33D-15
 Solved reduced A of dimension   243 with    33 vectors.
 End of Minotr F.D. properties file   721 does not exist.
 End of Minotr F.D. properties file   722 does not exist.
 End of Minotr F.D. properties file   788 does not exist.
 Leave Link 1002 at Sat Jun 22 15:01:27 2019, MaxMem=   671088640 cpu:            2245.2 elap:             112.4
 (Enter /shared/centos7/gaussian/g16/l601.exe)
 Copying SCF densities to generalized density rwf, IOpCl= 1 IROHF=0.

 **********************************************************************

            Population analysis using the SCF density.

 **********************************************************************

 Alpha  occ. eigenvalues --  -19.71266 -19.68282 -19.66099 -10.60634 -10.54134
 Alpha  occ. eigenvalues --   -1.31294  -1.18163  -0.95538  -0.86803  -0.73856
 Alpha  occ. eigenvalues --   -0.64085  -0.59834  -0.56943  -0.55332  -0.54666
 Alpha  occ. eigenvalues --   -0.53809  -0.47385  -0.45804  -0.42449  -0.38826
 Alpha  occ. eigenvalues --   -0.35628  -0.35318
 Alpha virt. eigenvalues --    0.04727   0.08307   0.10091   0.11508   0.13576
 Alpha virt. eigenvalues --    0.16377   0.16707   0.19410   0.22463   0.24947
 Alpha virt. eigenvalues --    0.27445   0.28835   0.33337   0.35229   0.35540
 Alpha virt. eigenvalues --    0.40006   0.43667   0.45574   0.45710   0.47136
 Alpha virt. eigenvalues --    0.49038   0.50936   0.51500   0.53200   0.56634
 Alpha virt. eigenvalues --    0.57062   0.59588   0.60662   0.63318   0.65650
 Alpha virt. eigenvalues --    0.66040   0.69855   0.72617   0.73953   0.75662
 Alpha virt. eigenvalues --    0.80760   0.83860   0.84249   0.85278   0.92089
 Alpha virt. eigenvalues --    0.95030   0.95674   1.00164   1.00620   1.05907
 Alpha virt. eigenvalues --    1.07244   1.08577   1.09959   1.14167   1.15437
 Alpha virt. eigenvalues --    1.17710   1.18843   1.20518   1.21332   1.26025
 Alpha virt. eigenvalues --    1.26777   1.29861   1.32001   1.32725   1.35173
 Alpha virt. eigenvalues --    1.35604   1.37720   1.41980   1.44776   1.49343
 Alpha virt. eigenvalues --    1.52930   1.55441   1.58066   1.59861   1.60268
 Alpha virt. eigenvalues --    1.64700   1.70987   1.87221   1.92101   1.99884
 Alpha virt. eigenvalues --    2.00204   2.03121   2.09540   2.09991   2.18120
 Alpha virt. eigenvalues --    2.20175   2.25597   2.26118   2.30175   2.31918
 Alpha virt. eigenvalues --    2.35963   2.37676   2.42370   2.43565   2.54803
 Alpha virt. eigenvalues --    2.56103   2.61582   2.65530   2.70814   2.75320
 Alpha virt. eigenvalues --    2.81629   2.81923   2.83360   2.87088   2.91331
 Alpha virt. eigenvalues --    2.93784   2.95573   2.98067   2.99571   3.06407
 Alpha virt. eigenvalues --    3.07885   3.08896   3.10927   3.12485   3.15198
 Alpha virt. eigenvalues --    3.19934   3.22356   3.22849   3.25475   3.29786
 Alpha virt. eigenvalues --    3.31520   3.36069   3.39093   3.42633   3.42992
 Alpha virt. eigenvalues --    3.45830   3.49202   3.51251   3.52250   3.52830
 Alpha virt. eigenvalues --    3.58708   3.61279   3.64310   3.65952   3.69234
 Alpha virt. eigenvalues --    3.73049   3.75543   3.76121   3.77359   3.77900
 Alpha virt. eigenvalues --    3.79023   3.82044   3.84431   3.86356   3.88411
 Alpha virt. eigenvalues --    3.91180   3.93701   3.96489   3.98723   3.98831
 Alpha virt. eigenvalues --    4.00103   4.00894   4.04168   4.08206   4.09629
 Alpha virt. eigenvalues --    4.12782   4.16325   4.18055   4.21835   4.25214
 Alpha virt. eigenvalues --    4.27001   4.31042   4.36583   4.38481   4.45125
 Alpha virt. eigenvalues --    4.47122   4.54388   4.69098   4.71863   4.72579
 Alpha virt. eigenvalues --    4.74256   4.77026   4.79224   4.79677   4.80760
 Alpha virt. eigenvalues --    4.85523   4.87524   4.90305   4.94361   4.96202
 Alpha virt. eigenvalues --    5.04488   5.07650   5.10356   5.14628   5.15705
 Alpha virt. eigenvalues --    5.19942   5.24650   5.25316   5.29276   5.31585
 Alpha virt. eigenvalues --    5.36195   5.38849   5.42392   5.43720   5.58992
 Alpha virt. eigenvalues --    5.66347   5.71809   5.76354   5.78139   5.81469
 Alpha virt. eigenvalues --    5.93539   6.03449   6.15910   6.18983   6.21508
 Alpha virt. eigenvalues --    6.23789   6.31445   6.35431   6.37234   6.37976
 Alpha virt. eigenvalues --    6.48899   6.56155   6.56867   6.60437   6.67097
 Alpha virt. eigenvalues --    6.73437   6.80506   6.83780   6.95303   6.98803
 Alpha virt. eigenvalues --    7.06159   7.11924   7.14662   7.27237   7.42109
 Alpha virt. eigenvalues --    7.64966   9.17986  11.60601  11.98684  12.35992
 Alpha virt. eigenvalues --   13.46024
  Beta  occ. eigenvalues --  -19.70463 -19.66826 -19.66104 -10.60634 -10.54132
  Beta  occ. eigenvalues --   -1.27934  -1.18152  -0.90702  -0.86782  -0.73851
  Beta  occ. eigenvalues --   -0.62928  -0.59251  -0.55181  -0.54067  -0.52102
  Beta  occ. eigenvalues --   -0.47448  -0.46393  -0.45757  -0.42415  -0.38704
  Beta  occ. eigenvalues --   -0.32689
  Beta virt. eigenvalues --   -0.03863   0.04754   0.08345   0.10145   0.11511
  Beta virt. eigenvalues --    0.13574   0.16428   0.16906   0.19740   0.22651
  Beta virt. eigenvalues --    0.25938   0.27605   0.28867   0.33372   0.35357
  Beta virt. eigenvalues --    0.35626   0.40066   0.43747   0.45578   0.45727
  Beta virt. eigenvalues --    0.47153   0.49095   0.50934   0.51527   0.53218
  Beta virt. eigenvalues --    0.56742   0.57269   0.59775   0.60789   0.63985
  Beta virt. eigenvalues --    0.65882   0.66466   0.70890   0.72766   0.75141
  Beta virt. eigenvalues --    0.76356   0.80909   0.83986   0.84570   0.85359
  Beta virt. eigenvalues --    0.92190   0.95086   0.95746   1.00207   1.00801
  Beta virt. eigenvalues --    1.06036   1.07436   1.08703   1.09993   1.14423
  Beta virt. eigenvalues --    1.15649   1.17813   1.18950   1.20584   1.21471
  Beta virt. eigenvalues --    1.26212   1.27139   1.30199   1.32472   1.33559
  Beta virt. eigenvalues --    1.35264   1.37143   1.38431   1.42342   1.44926
  Beta virt. eigenvalues --    1.49771   1.53548   1.55674   1.58430   1.60207
  Beta virt. eigenvalues --    1.62100   1.65579   1.71193   1.87778   1.92243
  Beta virt. eigenvalues --    2.00193   2.00564   2.03902   2.09714   2.10221
  Beta virt. eigenvalues --    2.18821   2.21305   2.25686   2.26448   2.30287
  Beta virt. eigenvalues --    2.32027   2.36049   2.37803   2.42448   2.43565
  Beta virt. eigenvalues --    2.54931   2.56129   2.61598   2.65625   2.70824
  Beta virt. eigenvalues --    2.75419   2.81644   2.81930   2.83375   2.87094
  Beta virt. eigenvalues --    2.91340   2.93802   2.95580   2.98080   2.99605
  Beta virt. eigenvalues --    3.06421   3.07914   3.08958   3.10944   3.12496
  Beta virt. eigenvalues --    3.15230   3.20123   3.22597   3.22912   3.25683
  Beta virt. eigenvalues --    3.29824   3.31543   3.36358   3.39209   3.42667
  Beta virt. eigenvalues --    3.43052   3.45958   3.49348   3.51250   3.52597
  Beta virt. eigenvalues --    3.53452   3.60023   3.62383   3.64663   3.67160
  Beta virt. eigenvalues --    3.69720   3.73643   3.75725   3.76162   3.77940
  Beta virt. eigenvalues --    3.79078   3.81274   3.82670   3.84963   3.86387
  Beta virt. eigenvalues --    3.88497   3.92019   3.94000   3.96808   3.98836
  Beta virt. eigenvalues --    3.99200   4.00466   4.01056   4.04364   4.08778
  Beta virt. eigenvalues --    4.09714   4.12891   4.16485   4.18516   4.21857
  Beta virt. eigenvalues --    4.25305   4.27063   4.31084   4.36640   4.38535
  Beta virt. eigenvalues --    4.45162   4.47189   4.54586   4.69109   4.71889
  Beta virt. eigenvalues --    4.72607   4.75884   4.77159   4.79339   4.79767
  Beta virt. eigenvalues --    4.81611   4.85872   4.87665   4.91774   4.94463
  Beta virt. eigenvalues --    4.96438   5.05406   5.08201   5.10423   5.14850
  Beta virt. eigenvalues --    5.18802   5.21685   5.24674   5.25389   5.29465
  Beta virt. eigenvalues --    5.31667   5.36661   5.39054   5.42435   5.43787
  Beta virt. eigenvalues --    5.59057   5.67755   5.71842   5.76441   5.78185
  Beta virt. eigenvalues --    5.81502   5.93666   6.04500   6.18595   6.20776
  Beta virt. eigenvalues --    6.27987   6.30122   6.35043   6.39021   6.40441
  Beta virt. eigenvalues --    6.42719   6.49469   6.56560   6.58781   6.61783
  Beta virt. eigenvalues --    6.67363   6.73705   6.80669   6.84280   6.95587
  Beta virt. eigenvalues --    6.99319   7.08758   7.12153   7.14652   7.27261
  Beta virt. eigenvalues --    7.42636   7.65765   9.19876  11.60999  11.98850
  Beta virt. eigenvalues --   12.35996  13.46029
          Condensed to atoms (all electrons):
               1          2          3          4          5          6
     1  O    7.935990  -0.037494   0.002870   0.237541  -0.041260  -0.030016
     2  O   -0.037494   7.766434   0.075739   0.009396  -0.002600  -0.000048
     3  O    0.002870   0.075739   8.135302  -0.004140  -0.001447   0.000006
     4  C    0.237541   0.009396  -0.004140   4.810927   0.326327   0.417587
     5  C   -0.041260  -0.002600  -0.001447   0.326327   4.999978  -0.048347
     6  H   -0.030016  -0.000048   0.000006   0.417587  -0.048347   0.599179
     7  H   -0.041105   0.003192  -0.000925   0.410660  -0.047728  -0.047807
     8  H   -0.004845   0.000171  -0.000574  -0.032136   0.389604  -0.009263
     9  H    0.006173  -0.000086   0.000483  -0.034873   0.379781   0.000592
    10  H    0.300574   0.001841   0.001465  -0.025601  -0.007701  -0.007708
    11  H    0.073796   0.316071  -0.031037  -0.007624   0.000562   0.001704
    12  H    0.000925  -0.002926   0.016537  -0.031880   0.394020   0.006855
               7          8          9         10         11         12
     1  O   -0.041105  -0.004845   0.006173   0.300574   0.073796   0.000925
     2  O    0.003192   0.000171  -0.000086   0.001841   0.316071  -0.002926
     3  O   -0.000925  -0.000574   0.000483   0.001465  -0.031037   0.016537
     4  C    0.410660  -0.032136  -0.034873  -0.025601  -0.007624  -0.031880
     5  C   -0.047728   0.389604   0.379781  -0.007701   0.000562   0.394020
     6  H   -0.047807  -0.009263   0.000592  -0.007708   0.001704   0.006855
     7  H    0.590137   0.008451  -0.004567   0.010370  -0.005622  -0.008078
     8  H    0.008451   0.614101  -0.035557   0.007008  -0.000547  -0.037023
     9  H   -0.004567  -0.035557   0.598666  -0.000137   0.000026  -0.022393
    10  H    0.010370   0.007008  -0.000137   0.461004  -0.007736  -0.001929
    11  H   -0.005622  -0.000547   0.000026  -0.007736   0.394298   0.002605
    12  H   -0.008078  -0.037023  -0.022393  -0.001929   0.002605   0.533635
          Atomic-Atomic Spin Densities.
               1          2          3          4          5          6
     1  O   -0.002899   0.000294  -0.000107   0.001700  -0.001034   0.000157
     2  O    0.000294   0.438901  -0.146360  -0.001445   0.001055  -0.000002
     3  O   -0.000107  -0.146360   0.870030  -0.000561  -0.001006  -0.000042
     4  C    0.001700  -0.001445  -0.000561  -0.006529   0.003448   0.000160
     5  C   -0.001034   0.001055  -0.001006   0.003448  -0.002921  -0.000183
     6  H    0.000157  -0.000002  -0.000042   0.000160  -0.000183  -0.000086
     7  H    0.000111   0.000591  -0.000203  -0.000023   0.000321   0.000571
     8  H    0.000154  -0.000025   0.000125  -0.000844   0.000458  -0.000126
     9  H   -0.000055   0.000012  -0.000078   0.000302   0.000914  -0.000028
    10  H   -0.000002  -0.000055  -0.000183  -0.000070  -0.000129   0.000247
    11  H    0.001478   0.001830  -0.001308   0.000462  -0.000165   0.000079
    12  H    0.000150  -0.001506   0.000333  -0.000175   0.002360  -0.000487
               7          8          9         10         11         12
     1  O    0.000111   0.000154  -0.000055  -0.000002   0.001478   0.000150
     2  O    0.000591  -0.000025   0.000012  -0.000055   0.001830  -0.001506
     3  O   -0.000203   0.000125  -0.000078  -0.000183  -0.001308   0.000333
     4  C   -0.000023  -0.000844   0.000302  -0.000070   0.000462  -0.000175
     5  C    0.000321   0.000458   0.000914  -0.000129  -0.000165   0.002360
     6  H    0.000571  -0.000126  -0.000028   0.000247   0.000079  -0.000487
     7  H   -0.000485  -0.000112   0.000083   0.000001  -0.000090   0.000221
     8  H   -0.000112  -0.000587   0.000457   0.000038   0.000023   0.000564
     9  H    0.000083   0.000457  -0.001125  -0.000009  -0.000009  -0.000681
    10  H    0.000001   0.000038  -0.000009  -0.000035  -0.000098   0.000155
    11  H   -0.000090   0.000023  -0.000009  -0.000098  -0.013064   0.000009
    12  H    0.000221   0.000564  -0.000681   0.000155   0.000009  -0.004533
 Mulliken charges and spin densities:
               1          2
     1  O   -0.403151  -0.000053
     2  O   -0.129690   0.293290
     3  O   -0.194278   0.720642
     4  C   -0.076185  -0.003574
     5  C   -0.341189   0.003120
     6  H    0.117267   0.000260
     7  H    0.133022   0.000987
     8  H    0.100611   0.000126
     9  H    0.111890  -0.000216
    10  H    0.268550  -0.000139
    11  H    0.263503  -0.010852
    12  H    0.149650  -0.003591
 Sum of Mulliken charges =  -0.00000   1.00000
 Mulliken charges and spin densities with hydrogens summed into heavy atoms:
               1          2
     1  O   -0.134601  -0.000192
     2  O    0.133813   0.282438
     3  O   -0.194278   0.720642
     4  C    0.174104  -0.002327
     5  C    0.020962  -0.000561
 APT charges:
               1
     1  O   -0.495372
     2  O   -0.059571
     3  O   -0.169369
     4  C   -0.709158
     5  C   -0.916762
     6  H    0.472989
     7  H    0.310176
     8  H    0.331718
     9  H    0.443175
    10  H    0.441979
    11  H    0.166408
    12  H    0.183786
 Sum of APT charges =  -0.00000
 APT charges with hydrogens summed into heavy atoms:
               1
     1  O   -0.053393
     2  O    0.106837
     3  O   -0.169369
     4  C    0.074008
     5  C    0.041917
 Electronic spatial extent (au):  <R**2>=            593.8725
 Charge=             -0.0000 electrons
 Dipole moment (field-independent basis, Debye):
    X=             -3.7392    Y=             -0.5053    Z=             -0.6874  Tot=              3.8353
 Quadrupole moment (field-independent basis, Debye-Ang):
   XX=            -34.5707   YY=            -32.9285   ZZ=            -28.0011
   XY=             -1.9376   XZ=             -0.1503   YZ=              1.1302
 Traceless Quadrupole moment (field-independent basis, Debye-Ang):
   XX=             -2.7373   YY=             -1.0951   ZZ=              3.8323
   XY=             -1.9376   XZ=             -0.1503   YZ=              1.1302
 Octapole moment (field-independent basis, Debye-Ang**2):
  XXX=             -6.5987  YYY=             -1.2771  ZZZ=             -5.8956  XYY=              3.0753
  XXY=             -4.3012  XXZ=             -1.6153  XZZ=              0.6894  YZZ=             -3.8564
  YYZ=              0.0688  XYZ=              0.2209
 Hexadecapole moment (field-independent basis, Debye-Ang**3):
 XXXX=           -507.3888 YYYY=           -179.2606 ZZZZ=            -55.4395 XXXY=              1.7535
 XXXZ=             -3.4621 YYYX=              0.6327 YYYZ=              1.2814 ZZZX=              4.3999
 ZZZY=              4.6320 XXYY=           -111.5860 XXZZ=            -90.0016 YYZZ=            -37.0964
 XXYZ=              3.9240 YYXZ=              0.0551 ZZXY=              2.6767
 N-N= 1.864579890659D+02 E-N=-1.091999807568D+03  KE= 3.043925192554D+02
  Exact polarizability:   0.000   0.000   0.000   0.000   0.000   0.000
 Approx polarizability:  44.102   0.215  48.943  -0.215  -4.203  44.638
                          Isotropic Fermi Contact Couplings
        Atom                 a.u.       MegaHertz       Gauss      10(-4) cm-1
     1  O(17)             -0.00351       2.12914       0.75973       0.71020
     2  O(17)              0.05710     -34.61279     -12.35070     -11.54558
     3  O(17)              0.16451     -99.72594     -35.58469     -33.26499
     4  C(13)              0.00004       0.04327       0.01544       0.01443
     5  C(13)              0.00072       0.80618       0.28766       0.26891
     6  H(1)               0.00007       0.31338       0.11182       0.10453
     7  H(1)               0.00004       0.18695       0.06671       0.06236
     8  H(1)               0.00001       0.03001       0.01071       0.01001
     9  H(1)              -0.00000      -0.01455      -0.00519      -0.00485
    10  H(1)               0.00001       0.02246       0.00802       0.00749
    11  H(1)              -0.00625     -27.95596      -9.97538      -9.32510
    12  H(1)               0.00000       0.01486       0.00530       0.00496
 --------------------------------------------------------
       Center         ----  Spin Dipole Couplings  ----
                      3XX-RR        3YY-RR        3ZZ-RR
 --------------------------------------------------------
     1   Atom        0.002362      0.000867     -0.003229
     2   Atom       -0.322638     -0.376448      0.699086
     3   Atom       -0.663084     -0.684979      1.348063
     4   Atom        0.005511     -0.002598     -0.002913
     5   Atom        0.007854     -0.003655     -0.004199
     6   Atom        0.002554     -0.001095     -0.001458
     7   Atom        0.004397     -0.002517     -0.001880
     8   Atom        0.003811     -0.002137     -0.001673
     9   Atom        0.003010     -0.001392     -0.001618
    10   Atom        0.004059     -0.001764     -0.002294
    11   Atom        0.039211     -0.009676     -0.029534
    12   Atom        0.012604     -0.004990     -0.007614
 --------------------------------------------------------
                        XY            XZ            YZ
 --------------------------------------------------------
     1   Atom        0.004687     -0.000135      0.000881
     2   Atom       -0.435428     -0.832125      0.866160
     3   Atom       -0.872821     -1.566445      1.597381
     4   Atom        0.001960     -0.000426     -0.000304
     5   Atom       -0.000533      0.000511      0.000098
     6   Atom        0.001130     -0.000173     -0.000094
     7   Atom        0.001846     -0.003047     -0.000956
     8   Atom       -0.000998      0.001629     -0.000333
     9   Atom       -0.001279     -0.000786      0.000239
    10   Atom        0.003944      0.003972      0.001910
    11   Atom        0.045466      0.011303      0.015179
    12   Atom       -0.006200     -0.001001      0.000211
 --------------------------------------------------------


 ---------------------------------------------------------------------------------
              Anisotropic Spin Dipole Couplings in Principal Axis System
 ---------------------------------------------------------------------------------

       Atom             a.u.   MegaHertz   Gauss  10(-4) cm-1        Axes

              Baa    -0.0040     0.286     0.102     0.095  0.4151 -0.5379  0.7337
     1 O(17)  Bbb    -0.0024     0.176     0.063     0.059 -0.5042  0.5353  0.6777
              Bcc     0.0064    -0.462    -0.165    -0.154  0.7573  0.6512  0.0491
 
              Baa    -0.8634    62.477    22.294    20.840 -0.2124  0.8023 -0.5579
     2 O(17)  Bbb    -0.7684    55.604    19.841    18.548  0.8760  0.4093  0.2551
              Bcc     1.6319  -118.082   -42.134   -39.388 -0.4330  0.4345  0.7897
 
              Baa    -1.5643   113.191    40.389    37.756  0.2095  0.9004 -0.3812
     3 O(17)  Bbb    -1.5189   109.910    39.218    36.662  0.8773 -0.0009  0.4799
              Bcc     3.0832  -223.101   -79.608   -74.418 -0.4317  0.4350  0.7902
 
              Baa    -0.0032    -0.430    -0.153    -0.143 -0.1459  0.7803  0.6082
     4 C(13)  Bbb    -0.0028    -0.374    -0.133    -0.125  0.1786 -0.5839  0.7920
              Bcc     0.0060     0.803     0.287     0.268  0.9731  0.2241 -0.0542
 
              Baa    -0.0042    -0.570    -0.203    -0.190 -0.0504 -0.2075  0.9769
     5 C(13)  Bbb    -0.0037    -0.490    -0.175    -0.164  0.0360  0.9772  0.2094
              Bcc     0.0079     1.060     0.378     0.354  0.9981 -0.0457  0.0417
 
              Baa    -0.0015    -0.796    -0.284    -0.265 -0.1001  0.4909  0.8655
     6 H(1)   Bbb    -0.0014    -0.743    -0.265    -0.248 -0.2588  0.8271 -0.4990
              Bcc     0.0029     1.539     0.549     0.513  0.9607  0.2739 -0.0442
 
              Baa    -0.0033    -1.738    -0.620    -0.580  0.1720  0.5896  0.7892
     7 H(1)   Bbb    -0.0029    -1.531    -0.546    -0.511 -0.4020  0.7734 -0.4902
              Bcc     0.0061     3.270     1.167     1.091  0.8993  0.2329 -0.3700
 
              Baa    -0.0023    -1.239    -0.442    -0.413  0.0747  0.9506  0.3012
     8 H(1)   Bbb    -0.0021    -1.123    -0.401    -0.375 -0.2975 -0.2671  0.9166
              Bcc     0.0044     2.362     0.843     0.788  0.9518 -0.1581  0.2628
 
              Baa    -0.0018    -0.944    -0.337    -0.315 -0.0405 -0.6286  0.7767
     9 H(1)   Bbb    -0.0017    -0.916    -0.327    -0.306  0.3000  0.7338  0.6095
              Bcc     0.0035     1.861     0.664     0.621  0.9531 -0.2577 -0.1589
 
              Baa    -0.0042    -2.243    -0.800    -0.748 -0.4239 -0.0238  0.9054
    10 H(1)   Bbb    -0.0037    -1.996    -0.712    -0.666 -0.3818  0.9112 -0.1548
              Bcc     0.0079     4.239     1.513     1.414  0.8213  0.4113  0.3953
 
              Baa    -0.0422   -22.502    -8.029    -7.506 -0.3297  0.7369 -0.5901
    11 H(1)   Bbb    -0.0273   -14.575    -5.201    -4.862 -0.4329  0.4375  0.7882
              Bcc     0.0695    37.078    13.230    12.368  0.8390  0.5153  0.1748
 
              Baa    -0.0077    -4.095    -1.461    -1.366  0.0854  0.1195  0.9892
    12 H(1)   Bbb    -0.0069    -3.703    -1.321    -1.235  0.2929  0.9459 -0.1395
              Bcc     0.0146     7.798     2.783     2.601  0.9523 -0.3016 -0.0458
 

 ---------------------------------------------------------------------------------

 No NMR shielding tensors so no spin-rotation constants.
 Leave Link  601 at Sat Jun 22 15:01:27 2019, MaxMem=   671088640 cpu:               6.2 elap:               0.3
 (Enter /shared/centos7/gaussian/g16/l701.exe)
 ... and contract with generalized density number  0.
 Compute integral second derivatives.
 Leave Link  701 at Sat Jun 22 15:01:28 2019, MaxMem=   671088640 cpu:               4.8 elap:               0.3
 (Enter /shared/centos7/gaussian/g16/l702.exe)
 L702 exits ... SP integral derivatives will be done elsewhere.
 Leave Link  702 at Sat Jun 22 15:01:28 2019, MaxMem=   671088640 cpu:               1.2 elap:               0.1
 (Enter /shared/centos7/gaussian/g16/l703.exe)
 Integral derivatives from FoFJK, PRISM(SPDF).
 Compute integral second derivatives, UseDBF=F ICtDFT=           0.
 Calling FoFJK, ICntrl=    100127 FMM=F ISym2X=0 I1Cent= 0 IOpClX= 1 NMat=1 NMatS=1 NMatT=0.
 FoFJK:  IHMeth= 1 ICntrl=  100127 DoSepK=F KAlg= 0 I1Cent=           0 FoldK=F
 IRaf=         0 NMat=       1 IRICut=       1 DoRegI=T DoRafI=F ISym2E= 0 IDoP0=0 IntGTp=1.
 FoFCou: FMM=F IPFlag=           0 FMFlag=      100000 FMFlg1=         800
         NFxFlg=           0 DoJE=F BraDBF=F KetDBF=F FulRan=T
         wScrn=  0.000000 ICntrl=    100127 IOpCl=  1 I1Cent=           0 NGrid=           0
         NMat0=    1 NMatS0=      1 NMatT0=    0 NMatD0=    1 NMtDS0=    0 NMtDT0=    0
 Symmetry not used in FoFCou.
 Leave Link  703 at Sat Jun 22 15:02:49 2019, MaxMem=   671088640 cpu:            1632.7 elap:              81.7
 (Enter /shared/centos7/gaussian/g16/l716.exe)
 Dipole        =-1.47110211D+00-1.98788093D-01-2.70436654D-01
 Polarizability= 0.00000000D+00 0.00000000D+00 0.00000000D+00
                 0.00000000D+00 0.00000000D+00 0.00000000D+00
 -------------------------------------------------------------------
 Center     Atomic                   Forces (Hartrees/Bohr)
 Number     Number              X              Y              Z
 -------------------------------------------------------------------
      1        8           0.000006350    0.000002375    0.000002467
      2        8          -0.000008622   -0.000003976   -0.000002461
      3        8           0.000000989    0.000000494    0.000001434
      4        6           0.000001902   -0.000002455   -0.000003366
      5        6           0.000000426    0.000000900    0.000002497
      6        1          -0.000000109    0.000000015   -0.000001558
      7        1          -0.000000202   -0.000001842   -0.000001097
      8        1           0.000000572    0.000000964    0.000000139
      9        1          -0.000000763   -0.000000794    0.000000795
     10        1          -0.000000392    0.000000646   -0.000001093
     11        1           0.000002249    0.000004585    0.000001992
     12        1          -0.000002401   -0.000000912    0.000000252
 -------------------------------------------------------------------
 Cartesian Forces:  Max     0.000008622 RMS     0.000002519
 Z-matrix is all fixed cartesians, so copy forces.
 Force constants in Cartesian coordinates: 
                1             2             3             4             5 
      1  0.235995D+00
      2 -0.123652D+00  0.182837D+00
      3 -0.260268D-01 -0.577212D-01  0.646100D+00
      4 -0.311113D-01 -0.624048D-02 -0.114692D-01  0.383660D+00
      5 -0.106493D-01  0.168459D-02 -0.147665D-02  0.136923D+00  0.455429D+00
      6 -0.117188D-01 -0.141548D-02  0.956020D-03  0.132691D+00 -0.170559D+00
      7  0.226193D-02 -0.329618D-03  0.759577D-03 -0.409434D-01  0.385908D-02
      8  0.209418D-02  0.171043D-02 -0.580741D-03 -0.375305D-01 -0.377670D+00
      9 -0.111399D-02 -0.892792D-03  0.806765D-03 -0.152699D-02  0.209280D+00
     10 -0.146637D+00  0.550192D-01  0.639169D-01  0.259296D-02  0.154688D-02
     11  0.614869D-01 -0.106619D+00 -0.496165D-01 -0.458439D-02 -0.259832D-02
     12  0.303201D-01 -0.155757D-01 -0.131791D+00 -0.455749D-02 -0.227151D-02
     13 -0.758654D-02  0.361266D-01 -0.240534D-03 -0.681919D-03 -0.741078D-03
     14  0.100888D-01 -0.253814D-01 -0.901876D-03 -0.152755D-03  0.283287D-03
     15  0.105434D-01 -0.299289D-01  0.465809D-04  0.303436D-03  0.337921D-05
     16 -0.288029D-01  0.259775D-02  0.820814D-02 -0.116481D-02 -0.695075D-03
     17  0.264733D-01  0.634931D-02 -0.196251D-02  0.102653D-02  0.676769D-03
     18  0.280591D-01  0.194153D-02  0.277676D-03  0.100338D-02  0.458229D-03
     19  0.343242D-02  0.347416D-03  0.328433D-01  0.101370D-03  0.660256D-04
     20  0.797154D-05  0.942509D-03 -0.234437D-01  0.295432D-03  0.103199D-03
     21  0.285392D-02 -0.190386D-02 -0.239894D-01  0.525316D-03  0.829282D-04
     22 -0.545012D-04 -0.216363D-03 -0.703797D-04  0.199792D-03 -0.725474D-04
     23 -0.196471D-02  0.313387D-02  0.112061D-03  0.214626D-04  0.359661D-04
     24 -0.394423D-03 -0.317244D-04  0.326319D-02  0.906858D-05 -0.736821D-04
     25  0.196743D-02  0.377657D-03  0.468907D-04  0.199138D-03  0.682795D-04
     26  0.278224D-02 -0.917939D-02  0.375150D-03  0.493918D-03  0.316943D-03
     27 -0.111833D-02  0.318211D-02  0.165828D-02  0.103924D-04 -0.496651D-04
     28 -0.408614D-01  0.361828D-01 -0.720781D-01 -0.313032D-02 -0.860015D-03
     29  0.327973D-01 -0.504602D-01  0.136538D+00 -0.117058D-02 -0.629789D-03
     30 -0.407578D-01  0.103225D+00 -0.487437D+00  0.112515D-02  0.629545D-03
     31  0.102425D-01 -0.846641D-04  0.478405D-02 -0.309353D+00 -0.128641D+00
     32 -0.618407D-03 -0.928480D-02 -0.125863D-02 -0.897354D-01 -0.774961D-01
     33  0.983988D-02 -0.227318D-03 -0.985158D-02 -0.118080D+00 -0.365791D-01
     34  0.115463D-02 -0.128215D-03 -0.673809D-03 -0.368790D-03 -0.804108D-03
     35  0.115375D-02  0.426674D-02 -0.634890D-04  0.654071D-03 -0.135488D-03
     36 -0.486229D-03 -0.651467D-03 -0.391206D-04 -0.341476D-04  0.554760D-03
                6             7             8             9            10 
      6  0.173995D+00
      7 -0.233260D-01  0.348896D-01
      8  0.186391D+00  0.341381D-01  0.418996D+00
      9 -0.116743D+00 -0.239687D-02 -0.211510D+00  0.115523D+00
     10 -0.121626D-02  0.333634D-03 -0.522438D-03  0.118264D-02  0.565162D+00
     11 -0.115692D-02  0.907706D-03  0.319051D-03 -0.874635D-03  0.483230D-01
     12 -0.221668D-02 -0.358076D-03 -0.312388D-03 -0.363794D-03  0.528435D-01
     13 -0.798959D-04 -0.209248D-03  0.220993D-03 -0.130574D-03 -0.831343D-01
     14  0.406299D-03  0.167115D-02 -0.389794D-04 -0.314196D-03 -0.642078D-02
     15  0.665375D-03  0.915841D-03  0.000000D+00 -0.821368D-04 -0.401372D-02
     16 -0.399793D-03 -0.660979D-05  0.109866D-03 -0.147693D-03 -0.252255D+00
     17  0.280663D-03 -0.240862D-03 -0.108315D-03  0.222240D-03 -0.104719D+00
     18  0.568134D-03  0.262012D-04  0.147315D-04  0.331226D-04 -0.394815D-01
     19 -0.394705D-03  0.643109D-04 -0.125253D-03 -0.553672D-04 -0.777974D-01
     20 -0.917104D-04 -0.954455D-04 -0.181012D-03  0.109666D-03  0.776659D-02
     21  0.429980D-03  0.118291D-03  0.170829D-03 -0.252959D-04 -0.742707D-01
     22 -0.738292D-05 -0.428176D-04  0.161025D-03  0.357955D-03 -0.803279D-03
     23 -0.984274D-04 -0.880345D-04 -0.224551D-04  0.117182D-03  0.108675D-01
     24  0.411300D-04 -0.169384D-03  0.120152D-03  0.645129D-04 -0.108665D-02
     25 -0.273093D-03 -0.781546D-03  0.883100D-05  0.195977D-03 -0.167006D-02
     26 -0.196908D-04 -0.394133D-03 -0.308108D-04  0.121203D-03  0.208755D-01
     27 -0.211200D-04 -0.411667D-04  0.322604D-04  0.767162D-04 -0.661651D-02
     28 -0.179259D-03  0.351901D-03 -0.184265D-03  0.929112D-03  0.192532D-02
     29 -0.551138D-04  0.867597D-03  0.449913D-03  0.248133D-03 -0.944505D-03
     30  0.250494D-03  0.412735D-03 -0.871813D-04  0.820895D-04 -0.241743D-02
     31 -0.953830D-01  0.616086D-02  0.100711D-02  0.308008D-02 -0.929124D-02
     32 -0.136313D-01 -0.395608D-01 -0.435382D-01  0.322735D-02  0.163807D-02
     33 -0.572514D-01  0.242830D-01  0.261175D-01  0.516622D-03  0.660673D-03
     34  0.287124D-03 -0.207858D-02  0.622398D-03 -0.374281D-03  0.157407D-02
     35 -0.507150D-04 -0.734699D-03  0.114530D-03  0.265233D-03 -0.334302D-01
     36 -0.673248D-03 -0.224117D-03 -0.355431D-03  0.111651D-03  0.104991D-01
               11            12            13            14            15 
     11  0.487336D+00
     12 -0.273499D-01  0.603080D+00
     13 -0.142755D-01  0.117126D-02  0.591960D+00
     14 -0.200261D+00  0.354723D-01  0.132402D-02  0.497304D+00
     15  0.479602D-01 -0.962450D-01 -0.633368D-02  0.229254D-01  0.571002D+00
     16 -0.101384D+00 -0.338818D-01  0.374249D-02  0.148023D-03 -0.933214D-03
     17 -0.999429D-01 -0.146618D-01 -0.302928D-01 -0.146369D-01 -0.493527D-02
     18 -0.141359D-01 -0.610731D-01  0.804716D-02  0.576935D-02  0.242740D-02
     19  0.687349D-02 -0.859224D-01  0.511584D-03 -0.409053D-03  0.204222D-03
     20 -0.536752D-01  0.353845D-01  0.105107D-01 -0.440709D-02  0.326184D-01
     21  0.296868D-01 -0.287707D+00 -0.289686D-02  0.218587D-02 -0.531834D-02
     22  0.505840D-03  0.125968D-02 -0.703347D-01  0.666768D-02 -0.742942D-01
     23 -0.530077D-02  0.353937D-01  0.727422D-02 -0.498750D-01  0.234261D-01
     24 -0.209009D-03 -0.997357D-02 -0.729542D-01  0.247229D-01 -0.286410D+00
     25 -0.103782D-02 -0.822047D-03 -0.160682D+00  0.878378D-01  0.102650D+00
     26 -0.979541D-02 -0.210912D-01  0.864317D-01 -0.114624D+00 -0.768309D-01
     27  0.292552D-02  0.423085D-02  0.103028D+00 -0.783281D-01 -0.136911D+00
     28 -0.511853D-02  0.304393D-01  0.119527D-02 -0.455577D-03  0.655499D-03
     29  0.357601D-02 -0.252228D-01 -0.125998D-02  0.123585D-02 -0.278154D-02
     30  0.526056D-02 -0.244488D-01 -0.148184D-02  0.124697D-03  0.417392D-02
     31  0.736323D-02  0.856273D-02  0.152414D-02 -0.135577D-03 -0.106535D-02
     32  0.287908D-02  0.349660D-02  0.128291D-02  0.489605D-05 -0.319012D-03
     33  0.385326D-02  0.616473D-02  0.548774D-03 -0.627416D-03 -0.994477D-03
     34  0.939839D-03  0.945253D-03 -0.276305D+00 -0.100164D+00 -0.286317D-01
     35 -0.159177D-01 -0.326193D-02 -0.966018D-01 -0.896045D-01 -0.121369D-01
     36  0.365649D-02  0.343186D-03 -0.286775D-01 -0.114351D-01 -0.523547D-01
               16            17            18            19            20 
     16  0.282513D+00
     17  0.103799D+00  0.109224D+00
     18  0.291473D-01  0.182949D-01  0.595274D-01
     19 -0.721141D-02  0.357423D-02 -0.276470D-01  0.815116D-01
     20 -0.499827D-02  0.269720D-02 -0.135976D-01 -0.144597D-01  0.602414D-01
     21 -0.275172D-02  0.890671D-03 -0.253729D-02  0.749389D-01 -0.291317D-01
     22  0.185939D-03  0.441683D-03  0.721648D-03  0.118431D-02 -0.252857D-03
     23 -0.111923D-03  0.168752D-02 -0.745269D-03  0.282247D-03 -0.643825D-02
     24  0.379364D-03  0.378809D-03  0.537614D-03  0.721051D-03  0.152444D-02
     25  0.274869D-05  0.500775D-03 -0.196760D-03  0.122506D-03  0.162106D-03
     26 -0.114927D-02  0.810468D-03 -0.132687D-03  0.220602D-03  0.114407D-02
     27  0.123052D-03 -0.480306D-03  0.264802D-03 -0.145453D-03 -0.726381D-03
     28 -0.675585D-03 -0.319586D-03  0.116377D-02 -0.279356D-02  0.198303D-02
     29  0.104611D-04  0.469379D-04  0.834722D-03  0.300987D-02 -0.227032D-02
     30 -0.729869D-03  0.763519D-03  0.654782D-03  0.397462D-02 -0.192895D-02
     31  0.246813D-02 -0.154124D-02 -0.123543D-02  0.435844D-03 -0.529876D-03
     32  0.649709D-03 -0.706309D-03 -0.673541D-03  0.187299D-03  0.271953D-03
     33  0.129493D-02 -0.994284D-03 -0.129583D-02  0.773900D-03 -0.196949D-03
     34  0.120408D-02  0.129722D-02  0.392041D-03  0.438448D-03 -0.389667D-03
     35  0.102303D-02 -0.609795D-02  0.197148D-02  0.432812D-03  0.157159D-02
     36 -0.308698D-03  0.220329D-02  0.615286D-03  0.708876D-03 -0.520004D-03
               21            22            23            24            25 
     21  0.318303D+00
     22  0.489315D-05  0.702606D-01
     23  0.102410D-02 -0.844176D-02  0.549516D-01
     24  0.135267D-02  0.806466D-01 -0.297155D-01  0.311067D+00
     25 -0.190907D-03  0.639759D-02 -0.626620D-02 -0.598177D-02  0.170811D+00
     26  0.552018D-03 -0.331921D-02  0.145763D-02  0.216280D-02 -0.970749D-01
     27  0.182705D-03  0.203472D-01 -0.156574D-01 -0.168561D-01 -0.112277D+00
     28  0.204152D-02 -0.156590D-03  0.670382D-03 -0.957593D-03 -0.357141D-03
     29 -0.300192D-02  0.908726D-03 -0.183439D-03  0.129343D-02 -0.136390D-03
     30  0.291107D-03 -0.204628D-03 -0.124616D-02 -0.422214D-03 -0.194189D-03
     31 -0.662818D-03 -0.232147D-03  0.111058D-04  0.234263D-04 -0.491026D-05
     32 -0.362360D-03 -0.193673D-03 -0.370119D-04 -0.531819D-04 -0.219495D-03
     33 -0.120480D-02 -0.142637D-03  0.188118D-03 -0.893849D-04  0.183535D-03
     34  0.290162D-03 -0.660424D-02 -0.225426D-02 -0.235508D-03 -0.160049D-01
     35 -0.193332D-03  0.381146D-02  0.590376D-03 -0.119359D-03  0.157793D-01
     36  0.223064D-03 -0.286187D-01 -0.127985D-01 -0.257490D-02  0.168603D-01
               26            27            28            29            30 
     26  0.122968D+00
     27  0.849181D-01  0.145352D+00
     28 -0.208988D-03 -0.245970D-03  0.400165D-01
     29  0.860160D-05  0.841983D-03 -0.342719D-01  0.479569D-01
     30  0.128312D-02  0.584264D-04  0.431114D-01 -0.107791D+00  0.509107D+00
     31 -0.105709D-02  0.421671D-04  0.453196D-02  0.400917D-03 -0.292157D-02
     32 -0.408054D-03  0.461743D-05  0.283750D-02  0.735926D-03  0.153547D-03
     33 -0.318170D-03  0.164140D-04 -0.436331D-02 -0.701143D-03 -0.214397D-02
     34 -0.760038D-02 -0.310569D-02 -0.463583D-04 -0.211524D-03  0.834958D-04
     35  0.733209D-02  0.333731D-02 -0.254795D-03 -0.466467D-03 -0.386253D-03
     36  0.898033D-02  0.194806D-02 -0.516380D-03 -0.202644D-03 -0.165166D-03
               31            32            33            34            35 
     31  0.292614D+00
     32  0.123510D+00  0.128480D+00
     33  0.848708D-01  0.945233D-02  0.657359D-01
     34  0.904367D-03  0.222335D-03  0.130418D-03  0.296132D+00
     35 -0.303080D-03 -0.901618D-03  0.331715D-04  0.108470D+00  0.992483D-01
     36 -0.950389D-04 -0.364373D-04  0.397835D-03  0.308925D-01  0.106048D-01
               36 
     36  0.521681D-01
 Leave Link  716 at Sat Jun 22 15:02:50 2019, MaxMem=   671088640 cpu:               0.6 elap:               0.1
 (Enter /shared/centos7/gaussian/g16/l123.exe)
 IRC-IRC-IRC-IRC-IRC-IRC-IRC-IRC-IRC-IRC-IRC-IRC-IRC-IRC-IRC-IRC-IRC-IRC
          ******** Start new reaction path calculation ********
 Current Structure is TS -> form Hessian eigenvectors.
                            Diagonalizing Hessian.
 Supplied step size of   0.1000 bohr.
    Integration on MW PES will use step size of   0.1669 sqrt(amu)*bohr.
 Point Number:   0          Path Number:   1
 Calculating another point on the path.
 Point Number  1 in FORWARD path direction.
 Using LQA Reaction Path Following.
 IRC-IRC-IRC-IRC-IRC-IRC-IRC-IRC-IRC-IRC-IRC-IRC-IRC-IRC-IRC-IRC-IRC-IRC
 Leave Link  123 at Sat Jun 22 15:02:50 2019, MaxMem=   671088640 cpu:               0.3 elap:               0.0
 (Enter /shared/centos7/gaussian/g16/l202.exe)
                          Input orientation:                          
 ---------------------------------------------------------------------
 Center     Atomic      Atomic             Coordinates (Angstroms)
 Number     Number       Type             X           Y           Z
 ---------------------------------------------------------------------
      1          8           0       -0.636566   -1.093592   -0.400449
      2          8           0        1.786254   -0.353068    0.390712
      3          8           0        1.805053    0.785730   -0.254067
      4          6           0       -1.602773   -0.356534    0.357328
      5          6           0       -1.615138    1.110439   -0.013397
      6          1           0       -2.586423   -0.809928    0.219154
      7          1           0       -1.315365   -0.492994    1.398924
      8          1           0       -1.914010    1.241663   -1.055445
      9          1           0       -2.327727    1.652264    0.607636
     10          1           0       -0.727396   -0.861297   -1.329474
     11          1           0        0.917161   -0.761438    0.133966
     12          1           0       -0.625008    1.544556    0.116877
 ---------------------------------------------------------------------
                    Distance matrix (angstroms):
                    1          2          3          4          5
     1  O    0.000000
     2  O    2.654124   0.000000
     3  O    3.084604   1.308799   0.000000
     4  C    1.432144   3.389194   3.645799   0.000000
     5  C    2.442369   3.724866   3.443990   1.513143   0.000000
     6  H    2.065506   4.399825   4.696289   1.091891   2.164552
     7  H    2.014753   3.264370   3.755599   1.089103   2.157663
     8  H    2.741222   4.280945   3.831646   2.155697   1.091974
     9  H    3.378755   4.581840   4.309674   2.150228   1.089514
    10  H    0.961924   3.088005   3.206633   1.966310   2.531381
    11  H    1.676304   0.993986   1.825554   2.562012   3.152488
    12  H    2.688417   3.080609   2.572667   2.151276   1.088938
                    6          7          8          9         10
     6  H    0.000000
     7  H    1.762921   0.000000
     8  H    2.507143   3.064528   0.000000
     9  H    2.506039   2.500628   1.762270   0.000000
    10  H    2.420097   2.815228   2.430141   3.554074   0.000000
    11  H    3.504955   2.579991   3.666421   4.071808   2.203678
    12  H    3.066139   2.504365   1.768505   1.775302   2.809011
                   11         12
    11  H    0.000000
    12  H    2.774200   0.000000
 Symmetry turned off by external request.
 Stoichiometry    C2H7O3(2)
 Framework group  C1[X(C2H7O3)]
 Deg. of freedom    30
 Full point group                 C1      NOp   1
 Rotational constants (GHZ):           7.3225036           2.4745796           2.0423964
 Leave Link  202 at Sat Jun 22 15:02:50 2019, MaxMem=   671088640 cpu:               0.3 elap:               0.0
 (Enter /shared/centos7/gaussian/g16/l301.exe)
 Standard basis: CC-pVTZ (5D, 7F)
 Ernie: Thresh=  0.10000D-02 Tol=  0.10000D-05 Strict=F.
 Ernie:  15 primitive shells out of 186 were deleted.
   248 basis functions,   379 primitive gaussians,   280 cartesian basis functions
    22 alpha electrons       21 beta electrons
       nuclear repulsion energy       186.4752768301 Hartrees.
 IExCor= 4336 DFT=T Ex+Corr=M062X ExCW=0 ScaHFX=  0.540000
 ScaDFX=  1.000000  1.000000  1.000000  1.000000 ScalE2=  1.000000  1.000000
 IRadAn=      5 IRanWt=     -1 IRanGd=            0 ICorTp=0 IEmpDi=  4
 NAtoms=   12 NActive=   12 NUniq=   12 SFac= 1.00D+00 NAtFMM=   60 NAOKFM=F Big=F
 Integral buffers will be    131072 words long.
 Raffenetti 2 integral format.
 Two-electron integral symmetry is turned off.
 Leave Link  301 at Sat Jun 22 15:02:50 2019, MaxMem=   671088640 cpu:               1.9 elap:               0.1
 (Enter /shared/centos7/gaussian/g16/l302.exe)
 NPDir=0 NMtPBC=     1 NCelOv=     1 NCel=       1 NClECP=     1 NCelD=      1
         NCelK=      1 NCelE2=     1 NClLst=     1 CellRange=     0.0.
 One-electron integrals computed using PRISM.
 NBasis=   248 RedAO= T EigKep=  9.69D-04  NBF=   248
 NBsUse=   248 1.00D-06 EigRej= -1.00D+00 NBFU=   248
 Precomputing XC quadrature grid using
 IXCGrd= 4 IRadAn=           5 IRanWt=          -1 IRanGd=           0 AccXCQ= 0.00D+00.
 Generated NRdTot=       0 NPtTot=           0 NUsed=           0 NTot=          32
 NSgBfM=   280   280   280   280   280 MxSgAt=    12 MxSgA2=    12.
 Leave Link  302 at Sat Jun 22 15:02:50 2019, MaxMem=   671088640 cpu:               4.8 elap:               0.3
 (Enter /shared/centos7/gaussian/g16/l303.exe)
 DipDrv:  MaxL=1.
 Leave Link  303 at Sat Jun 22 15:02:50 2019, MaxMem=   671088640 cpu:               1.4 elap:               0.1
 (Enter /shared/centos7/gaussian/g16/l401.exe)
 Initial guess from the checkpoint file:  "/scratch/harms.n/gauss_scrdir/Gau-37361.chk"
 B after Tr=    -0.186701    0.032908    0.001968
         Rot=    1.000000   -0.000593    0.000226    0.000042 Ang=  -0.07 deg.
 Guess basis will be translated and rotated to current coordinates.
 JPrj=2 DoOrth=T DoCkMO=T.
 Initial guess <Sx>= 0.0000 <Sy>= 0.0000 <Sz>= 0.5000 <S**2>= 0.7548 S= 0.5024
 Generating alternative initial guess.
 ExpMin= 1.03D-01 ExpMax= 1.53D+04 ExpMxC= 5.22D+02 IAcc=2 IRadAn=         4 AccDes= 0.00D+00
 Harris functional with IExCor= 1009 and IRadAn=       4 diagonalized for initial guess.
 HarFok:  IExCor= 1009 AccDes= 0.00D+00 IRadAn=         4 IDoV= 1 UseB2=F ITyADJ=14
 ICtDFT=  3500011 ScaDFX=  1.000000  1.000000  1.000000  1.000000
 FoFCou: FMM=F IPFlag=           0 FMFlag=      100000 FMFlg1=           0
         NFxFlg=           0 DoJE=T BraDBF=F KetDBF=T FulRan=T
         wScrn=  0.000000 ICntrl=       500 IOpCl=  0 I1Cent=   200000004 NGrid=           0
         NMat0=    1 NMatS0=      1 NMatT0=    0 NMatD0=    1 NMtDS0=    0 NMtDT0=    0
 Symmetry not used in FoFCou.
 Harris En= -305.816321974739    
 Leave Link  401 at Sat Jun 22 15:02:51 2019, MaxMem=   671088640 cpu:              12.5 elap:               0.7
 (Enter /shared/centos7/gaussian/g16/l502.exe)
 Two-electron integral symmetry not used.
 UHF open shell SCF:
 Using DIIS extrapolation, IDIIS=  1040.
 NGot=   671088640 LenX=   670924296 LenY=   670845455
 Requested convergence on RMS density matrix=1.00D-08 within 128 cycles.
 Requested convergence on MAX density matrix=1.00D-06.
 Requested convergence on             energy=1.00D-06.
 No special actions if energy rises.
 Fock matrices will be formed incrementally for  20 cycles.
 Integral accuracy reduced to 1.0D-05 until final iterations.

 Cycle   1  Pass 0  IDiag  1:
 FoFJK:  IHMeth= 1 ICntrl=       0 DoSepK=F KAlg= 0 I1Cent=           0 FoldK=F
 IRaf= 970000000 NMat=       1 IRICut=       1 DoRegI=T DoRafI=F ISym2E= 0 IDoP0=0 IntGTp=1.
 FoFCou: FMM=F IPFlag=           0 FMFlag=      100000 FMFlg1=           0
         NFxFlg=           0 DoJE=F BraDBF=F KetDBF=F FulRan=T
         wScrn=  0.000000 ICntrl=         0 IOpCl=  1 I1Cent=           0 NGrid=           0
         NMat0=    1 NMatS0=      1 NMatT0=    0 NMatD0=    1 NMtDS0=    0 NMtDT0=    0
 Symmetry not used in FoFCou.
 E= -305.949013184503    
[...]
     5  C    2.442347   3.726790   3.444473   1.513060   0.000000
     6  H    2.065385   4.398653   4.695596   1.091761   2.164380
     7  H    2.014560   3.261239   3.750121   1.088970   2.157468
     8  H    2.741317   4.284516   3.836176   2.155529   1.091836
     9  H    3.378735   4.582755   4.308226   2.150214   1.089476
    10  H    0.961816   3.090297   3.211791   1.966226   2.531464
    11  H    1.676060   0.993966   1.825506   2.561499   3.153644
    12  H    2.688055   3.083413   2.572171   2.150961   1.088807
                    6          7          8          9         10
     6  H    0.000000
     7  H    1.762721   0.000000
     8  H    2.506846   3.064216   0.000000
     9  H    2.506076   2.500444   1.762085   0.000000
    10  H    2.419923   2.814970   2.430467   3.554182   0.000000
    11  H    3.504038   2.578152   3.668426   4.072363   2.204923
    12  H    3.065743   2.504043   1.768362   1.775174   2.808748
                   11         12
    11  H    0.000000
    12  H    2.775775   0.000000
 Symmetry turned off by external request.
 Stoichiometry    C2H7O3(2)
 Framework group  C1[X(C2H7O3)]
 Deg. of freedom    30
 Full point group                 C1      NOp   1
 Rotational constants (GHZ):           7.3217599           2.4746935           2.0418914
 Leave Link  202 at Sat Jun 22 15:17:32 2019, MaxMem=   671088640 cpu:               0.3 elap:               0.0
 (Enter /shared/centos7/gaussian/g16/l301.exe)
 Standard basis: CC-pVTZ (5D, 7F)
 Ernie: Thresh=  0.10000D-02 Tol=  0.10000D-05 Strict=F.
 Ernie:  15 primitive shells out of 186 were deleted.
   248 basis functions,   379 primitive gaussians,   280 cartesian basis functions
    22 alpha electrons       21 beta electrons
       nuclear repulsion energy       186.4774034005 Hartrees.
 IExCor= 4336 DFT=T Ex+Corr=M062X ExCW=0 ScaHFX=  0.540000
 ScaDFX=  1.000000  1.000000  1.000000  1.000000 ScalE2=  1.000000  1.000000
 IRadAn=      5 IRanWt=     -1 IRanGd=            0 ICorTp=0 IEmpDi=  4
 NAtoms=   12 NActive=   12 NUniq=   12 SFac= 1.00D+00 NAtFMM=   60 NAOKFM=F Big=F
 Integral buffers will be    131072 words long.
 Raffenetti 2 integral format.
 Two-electron integral symmetry is turned off.
 Leave Link  301 at Sat Jun 22 15:17:32 2019, MaxMem=   671088640 cpu:               1.1 elap:               0.1
 (Enter /shared/centos7/gaussian/g16/l302.exe)
 NPDir=0 NMtPBC=     1 NCelOv=     1 NCel=       1 NClECP=     1 NCelD=      1
         NCelK=      1 NCelE2=     1 NClLst=     1 CellRange=     0.0.
 One-electron integrals computed using PRISM.
 NBasis=   248 RedAO= T EigKep=  9.68D-04  NBF=   248
 NBsUse=   248 1.00D-06 EigRej= -1.00D+00 NBFU=   248
 Precomputing XC quadrature grid using
 IXCGrd= 4 IRadAn=           5 IRanWt=          -1 IRanGd=           0 AccXCQ= 0.00D+00.
 Generated NRdTot=       0 NPtTot=           0 NUsed=           0 NTot=          32
 NSgBfM=   280   280   280   280   280 MxSgAt=    12 MxSgA2=    12.
 Leave Link  302 at Sat Jun 22 15:17:32 2019, MaxMem=   671088640 cpu:               4.7 elap:               0.3
 (Enter /shared/centos7/gaussian/g16/l303.exe)
 DipDrv:  MaxL=1.
 Leave Link  303 at Sat Jun 22 15:17:33 2019, MaxMem=   671088640 cpu:               1.1 elap:               0.1
 (Enter /shared/centos7/gaussian/g16/l401.exe)
 Initial guess from the checkpoint file:  "/scratch/harms.n/gauss_scrdir/Gau-37361.chk"
 B after Tr=     0.000001   -0.000000    0.000000
         Rot=    1.000000    0.000002    0.000002   -0.000001 Ang=   0.00 deg.
 Guess basis will be translated and rotated to current coordinates.
 JPrj=2 DoOrth=T DoCkMO=T.
 Initial guess <Sx>= 0.0000 <Sy>= 0.0000 <Sz>= 0.5000 <S**2>= 0.7548 S= 0.5024
 Generating alternative initial guess.
 ExpMin= 1.03D-01 ExpMax= 1.53D+04 ExpMxC= 5.22D+02 IAcc=2 IRadAn=         4 AccDes= 0.00D+00
 Harris functional with IExCor= 1009 and IRadAn=       4 diagonalized for initial guess.
 HarFok:  IExCor= 1009 AccDes= 0.00D+00 IRadAn=         4 IDoV= 1 UseB2=F ITyADJ=14
 ICtDFT=  3500011 ScaDFX=  1.000000  1.000000  1.000000  1.000000
 FoFCou: FMM=F IPFlag=           0 FMFlag=      100000 FMFlg1=           0
         NFxFlg=           0 DoJE=T BraDBF=F KetDBF=T FulRan=T
         wScrn=  0.000000 ICntrl=       500 IOpCl=  0 I1Cent=   200000004 NGrid=           0
         NMat0=    1 NMatS0=      1 NMatT0=    0 NMatD0=    1 NMtDS0=    0 NMtDT0=    0
 Symmetry not used in FoFCou.
 Harris En= -305.816372475341    
 Leave Link  401 at Sat Jun 22 15:17:33 2019, MaxMem=   671088640 cpu:              11.9 elap:               0.6
 (Enter /shared/centos7/gaussian/g16/l502.exe)
 Two-electron integral symmetry not used.
 UHF open shell SCF:
 Using DIIS extrapolation, IDIIS=  1040.
 NGot=   671088640 LenX=   670924296 LenY=   670845455
 Requested convergence on RMS density matrix=1.00D-08 within 128 cycles.
 Requested convergence on MAX density matrix=1.00D-06.
 Requested convergence on             energy=1.00D-06.
 No special actions if energy rises.
 Fock matrices will be formed incrementally for  20 cycles.
 Integral accuracy reduced to 1.0D-05 until final iterations.

 Cycle   1  Pass 0  IDiag  1:
 FoFJK:  IHMeth= 1 ICntrl=       0 DoSepK=F KAlg= 0 I1Cent=           0 FoldK=F
 IRaf= 970000000 NMat=       1 IRICut=       1 DoRegI=T DoRafI=F ISym2E= 0 IDoP0=0 IntGTp=1.
 FoFCou: FMM=F IPFlag=           0 FMFlag=      100000 FMFlg1=           0
         NFxFlg=           0 DoJE=F BraDBF=F KetDBF=F FulRan=T
         wScrn=  0.000000 ICntrl=         0 IOpCl=  1 I1Cent=           0 NGrid=           0
         NMat0=    1 NMatS0=      1 NMatT0=    0 NMatD0=    1 NMtDS0=    0 NMtDT0=    0
 Symmetry not used in FoFCou.
 E= -305.949352849976    
 DIIS: error= 2.71D-05 at cycle   1 NSaved=   1.
 NSaved= 1 IEnMin= 1 EnMin= -305.949352849976     IErMin= 1 ErrMin= 2.71D-05
 ErrMax= 2.71D-05  0.00D+00 EMaxC= 1.00D-01 BMatC= 1.43D-06 BMatP= 1.43D-06
 IDIUse=1 WtCom= 1.00D+00 WtEn= 0.00D+00
 Coeff-Com:  0.100D+01
 Coeff:      0.100D+01
 Gap=     0.832 Goal=   None    Shift=    0.000
 Gap=     0.808 Goal=   None    Shift=    0.000
 RMSDP=4.74D-06 MaxDP=1.36D-04              OVMax= 7.71D-05

 Initial convergence to 1.0D-05 achieved.  Increase integral accuracy.
 Cycle   2  Pass 1  IDiag  1:
 E= -305.949325685376     Delta-E=        0.000027164600 Rises=F Damp=F
 DIIS: error= 2.69D-05 at cycle   1 NSaved=   1.
 NSaved= 1 IEnMin= 1 EnMin= -305.949325685376     IErMin= 1 ErrMin= 2.69D-05
 ErrMax= 2.69D-05  0.00D+00 EMaxC= 1.00D-01 BMatC= 1.32D-06 BMatP= 1.32D-06
 IDIUse=1 WtCom= 1.00D+00 WtEn= 0.00D+00
 Coeff-Com:  0.100D+01
 Coeff:      0.100D+01
 Gap=     0.401 Goal=   None    Shift=    0.000
 Gap=     0.288 Goal=   None    Shift=    0.000
 RMSDP=4.74D-06 MaxDP=1.36D-04 DE= 2.72D-05 OVMax= 6.80D-05

 Cycle   3  Pass 1  IDiag  1:
 RMSU=  4.46D-06    CP:  1.00D+00
 E= -305.949325841281     Delta-E=       -0.000000155905 Rises=F Damp=F
 DIIS: error= 4.35D-06 at cycle   2 NSaved=   2.
 NSaved= 2 IEnMin= 2 EnMin= -305.949325841281     IErMin= 2 ErrMin= 4.35D-06
 ErrMax= 4.35D-06  0.00D+00 EMaxC= 1.00D-01 BMatC= 1.53D-08 BMatP= 1.32D-06
 IDIUse=1 WtCom= 1.00D+00 WtEn= 0.00D+00
 Coeff-Com: -0.160D-01 0.102D+01
 Coeff:     -0.160D-01 0.102D+01
 Gap=     0.401 Goal=   None    Shift=    0.000
 Gap=     0.288 Goal=   None    Shift=    0.000
 RMSDP=4.05D-07 MaxDP=1.26D-05 DE=-1.56D-07 OVMax= 2.05D-05

 Cycle   4  Pass 1  IDiag  1:
 RMSU=  3.24D-07    CP:  1.00D+00  1.05D+00
 E= -305.949325842184     Delta-E=       -0.000000000903 Rises=F Damp=F
 DIIS: error= 3.21D-06 at cycle   3 NSaved=   3.
 NSaved= 3 IEnMin= 3 EnMin= -305.949325842184     IErMin= 3 ErrMin= 3.21D-06
 ErrMax= 3.21D-06  0.00D+00 EMaxC= 1.00D-01 BMatC= 1.45D-08 BMatP= 1.53D-08
 IDIUse=1 WtCom= 1.00D+00 WtEn= 0.00D+00
 Coeff-Com: -0.184D-01 0.508D+00 0.510D+00
 Coeff:     -0.184D-01 0.508D+00 0.510D+00
 Gap=     0.401 Goal=   None    Shift=    0.000
 Gap=     0.288 Goal=   None    Shift=    0.000
 RMSDP=1.23D-07 MaxDP=4.99D-06 DE=-9.03D-10 OVMax= 9.43D-06

 Cycle   5  Pass 1  IDiag  1:
 RMSU=  1.06D-07    CP:  1.00D+00  1.06D+00  8.09D-01
 E= -305.949325844479     Delta-E=       -0.000000002295 Rises=F Damp=F
 DIIS: error= 4.64D-07 at cycle   4 NSaved=   4.
 NSaved= 4 IEnMin= 4 EnMin= -305.949325844479     IErMin= 4 ErrMin= 4.64D-07
 ErrMax= 4.64D-07  0.00D+00 EMaxC= 1.00D-01 BMatC= 3.36D-10 BMatP= 1.45D-08
 IDIUse=1 WtCom= 1.00D+00 WtEn= 0.00D+00
 Coeff-Com: -0.324D-02 0.447D-01 0.129D+00 0.830D+00
 Coeff:     -0.324D-02 0.447D-01 0.129D+00 0.830D+00
 Gap=     0.401 Goal=   None    Shift=    0.000
 Gap=     0.288 Goal=   None    Shift=    0.000
 RMSDP=3.84D-08 MaxDP=1.55D-06 DE=-2.30D-09 OVMax= 4.51D-06

 Cycle   6  Pass 1  IDiag  1:
 RMSU=  2.96D-08    CP:  1.00D+00  1.06D+00  8.77D-01  1.05D+00
 E= -305.949325844543     Delta-E=       -0.000000000064 Rises=F Damp=F
 DIIS: error= 2.93D-07 at cycle   5 NSaved=   5.
 NSaved= 5 IEnMin= 5 EnMin= -305.949325844543     IErMin= 5 ErrMin= 2.93D-07
 ErrMax= 2.93D-07  0.00D+00 EMaxC= 1.00D-01 BMatC= 8.21D-11 BMatP= 3.36D-10
 IDIUse=1 WtCom= 1.00D+00 WtEn= 0.00D+00
 Coeff-Com:  0.617D-03-0.367D-01-0.230D-02 0.358D+00 0.680D+00
 Coeff:      0.617D-03-0.367D-01-0.230D-02 0.358D+00 0.680D+00
 Gap=     0.401 Goal=   None    Shift=    0.000
 Gap=     0.288 Goal=   None    Shift=    0.000
 RMSDP=1.75D-08 MaxDP=9.06D-07 DE=-6.38D-11 OVMax= 3.57D-06

 Cycle   7  Pass 1  IDiag  1:
 RMSU=  1.32D-08    CP:  1.00D+00  1.06D+00  9.03D-01  1.13D+00  9.90D-01
 E= -305.949325844568     Delta-E=       -0.000000000025 Rises=F Damp=F
 DIIS: error= 1.37D-07 at cycle   6 NSaved=   6.
 NSaved= 6 IEnMin= 6 EnMin= -305.949325844568     IErMin= 6 ErrMin= 1.37D-07
 ErrMax= 1.37D-07  0.00D+00 EMaxC= 1.00D-01 BMatC= 1.49D-11 BMatP= 8.21D-11
 IDIUse=1 WtCom= 1.00D+00 WtEn= 0.00D+00
 Coeff-Com:  0.579D-03-0.205D-01-0.133D-01 0.876D-01 0.316D+00 0.630D+00
 Coeff:      0.579D-03-0.205D-01-0.133D-01 0.876D-01 0.316D+00 0.630D+00
 Gap=     0.401 Goal=   None    Shift=    0.000
 Gap=     0.288 Goal=   None    Shift=    0.000
 RMSDP=8.73D-09 MaxDP=4.06D-07 DE=-2.51D-11 OVMax= 2.69D-06

 SCF Done:  E(UM062X) =  -305.949325845     A.U. after    7 cycles
            NFock=  7  Conv=0.87D-08     -V/T= 2.0051
 <Sx>= 0.0000 <Sy>= 0.0000 <Sz>= 0.5000 <S**2>= 0.7548 S= 0.5024
 <L.S>= 0.000000000000E+00
 KE= 3.043925244764D+02 PE=-1.092037201365D+03 EE= 2.952179476437D+02
 Annihilation of the first spin contaminant:
 S**2 before annihilation     0.7548,   after     0.7500
 Leave Link  502 at Sat Jun 22 15:17:51 2019, MaxMem=   671088640 cpu:             361.4 elap:              18.1
 (Enter /shared/centos7/gaussian/g16/l801.exe)
 DoSCS=F DFT=T ScalE2(SS,OS)=  1.000000  1.000000
 Range of M.O.s used for correlation:     1   248
 NBasis=   248 NAE=    22 NBE=    21 NFC=     0 NFV=     0
 NROrb=    248 NOA=    22 NOB=    21 NVA=   226 NVB=   227

 **** Warning!!: The largest alpha MO coefficient is  0.11958785D+02


 **** Warning!!: The largest beta MO coefficient is  0.11958795D+02

 Leave Link  801 at Sat Jun 22 15:17:51 2019, MaxMem=   671088640 cpu:               0.6 elap:               0.1
 (Enter /shared/centos7/gaussian/g16/l1101.exe)
 Leave Link 1101 at Sat Jun 22 15:17:51 2019, MaxMem=   671088640 cpu:               1.1 elap:               0.1
 (Enter /shared/centos7/gaussian/g16/l1102.exe)
 Symmetrizing basis deriv contribution to polar:
 IMax=3 JMax=2 DiffMx= 0.00D+00
 Leave Link 1102 at Sat Jun 22 15:17:52 2019, MaxMem=   671088640 cpu:               0.6 elap:               0.1
 (Enter /shared/centos7/gaussian/g16/l1110.exe)
 Leave Link 1110 at Sat Jun 22 15:17:52 2019, MaxMem=   671088640 cpu:               0.6 elap:               0.1
 (Enter /shared/centos7/gaussian/g16/l1002.exe)
 Minotr:  UHF open shell wavefunction.
 Leave Link 1002 at Sat Jun 22 15:17:52 2019, MaxMem=   671088640 cpu:               0.5 elap:               0.0
 (Enter /shared/centos7/gaussian/g16/l701.exe)
 ... and contract with generalized density number  0.
 Compute integral first derivatives.
 Leave Link  701 at Sat Jun 22 15:17:52 2019, MaxMem=   671088640 cpu:               3.9 elap:               0.2
 (Enter /shared/centos7/gaussian/g16/l702.exe)
 L702 exits ... SP integral derivatives will be done elsewhere.
 Leave Link  702 at Sat Jun 22 15:17:52 2019, MaxMem=   671088640 cpu:               0.5 elap:               0.0
 (Enter /shared/centos7/gaussian/g16/l703.exe)
 Integral derivatives from FoFJK, PRISM(SPDF).
 Compute integral first derivatives, UseDBF=F ICtDFT=           0.
 Calling FoFJK, ICntrl=      2127 FMM=F ISym2X=0 I1Cent= 0 IOpClX= 1 NMat=1 NMatS=1 NMatT=0.
 FoFJK:  IHMeth= 1 ICntrl=    2127 DoSepK=F KAlg= 0 I1Cent=           0 FoldK=F
 IRaf=         0 NMat=       1 IRICut=       1 DoRegI=T DoRafI=F ISym2E= 0 IDoP0=0 IntGTp=1.
 FoFCou: FMM=F IPFlag=           0 FMFlag=      100000 FMFlg1=         800
         NFxFlg=           0 DoJE=F BraDBF=F KetDBF=F FulRan=T
         wScrn=  0.000000 ICntrl=      2127 IOpCl=  1 I1Cent=           0 NGrid=           0
         NMat0=    1 NMatS0=      1 NMatT0=    0 NMatD0=    1 NMtDS0=    0 NMtDT0=    0
 Symmetry not used in FoFCou.
 Leave Link  703 at Sat Jun 22 15:17:58 2019, MaxMem=   671088640 cpu:             115.3 elap:               5.8
 (Enter /shared/centos7/gaussian/g16/l716.exe)
 Dipole        =-1.46889242D+00-1.95978042D-01-2.66610991D-01
 Polarizability= 0.00000000D+00 0.00000000D+00 0.00000000D+00
                 0.00000000D+00 0.00000000D+00 0.00000000D+00
 -------------------------------------------------------------------
 Center     Atomic                   Forces (Hartrees/Bohr)
 Number     Number              X              Y              Z
 -------------------------------------------------------------------
      1        8           0.000003498    0.000005076   -0.000016037
      2        8          -0.000002123    0.000008059    0.000010528
      3        8           0.000001060   -0.000005506   -0.000011016
      4        6          -0.000006640   -0.000005254   -0.000009025
      5        6           0.000003607   -0.000000333    0.000010803
      6        1          -0.000000608   -0.000000095   -0.000002582
      7        1          -0.000001917   -0.000001725   -0.000000217
      8        1           0.000001766    0.000001191    0.000000444
      9        1          -0.000000541   -0.000000563    0.000000512
     10        1           0.000002767   -0.000001472    0.000011516
     11        1          -0.000001145    0.000000958    0.000002311
     12        1           0.000000275   -0.000000335    0.000002763
 -------------------------------------------------------------------
 Cartesian Forces:  Max     0.000016037 RMS     0.000005498
 Z-matrix is all fixed cartesians, so copy forces.
 Leave Link  716 at Sat Jun 22 15:17:58 2019, MaxMem=   671088640 cpu:               0.5 elap:               0.0
 (Enter /shared/centos7/gaussian/g16/l123.exe)
 IRC-IRC-IRC-IRC-IRC-IRC-IRC-IRC-IRC-IRC-IRC-IRC-IRC-IRC-IRC-IRC-IRC-IRC
 Error in corrector energy =          -0.0000000001
 Magnitude of corrector gradient =     0.0000340092
 Magnitude of analytic gradient =      0.0000329910
 Magnitude of difference =             0.0000032086
 Angle between gradients (degrees)=    5.2065
 Pt  1 Step number  20 out of a maximum of  20
 Using modified Bulirsch-Stoer corrector integration.
   Using distance weighted interpolants to fit PES.
 PreDWI: IReCr0= 2 IReCr1= 1 IReCr2= 1 IReCr3= 1
 Modified Bulirsch-Stoer Extrapolation Cycles:
    EPS =    0.000010000000000
    Cycle     1 NS=    48
      PEZero:  N= 2 I= 1 D=  4.35D-04 Err=  1.01D-03
    Cycle     2 NS=    64 Truncation Error =  0.001012805
      PEZero:  N= 3 I= 2 D=  4.35D-04 Err=  6.98D-04
      PEZero:  N= 3 I= 1 D=  8.69D-04 Err=  3.18D-04
    Cycle     3 NS=    96 Truncation Error =  0.000318215
      PEZero:  N= 4 I= 3 D=  2.17D-04 Err=  6.85D-04
      PEZero:  N= 4 I= 2 D=  6.52D-04 Err=  4.34D-04
      PEZero:  N= 4 I= 1 D=  1.09D-03 Err=  3.30D-04
    Cycle     4 NS=   128 Truncation Error =  0.000330254
      PEZero:  N= 5 I= 4 D=  2.17D-04 Err=  1.01D-03
      PEZero:  N= 5 I= 3 D=  4.35D-04 Err=  8.27D-04
      PEZero:  N= 5 I= 2 D=  8.69D-04 Err=  6.10D-04
      PEZero:  N= 5 I= 1 D=  1.30D-03 Err=  5.00D-04
    Cycle     5 NS=   192 Truncation Error =  0.000500139
      PEZero:  N= 6 I= 5 D=  1.09D-04 Err=  1.70D-03
      PEZero:  N= 6 I= 4 D=  3.26D-04 Err=  1.26D-03
      PEZero:  N= 6 I= 3 D=  5.43D-04 Err=  1.02D-03
      PEZero:  N= 6 I= 2 D=  9.78D-04 Err=  6.99D-04
      PEZero:  N= 6 I= 1 D=  1.41D-03 Err=  5.33D-04
    Cycle     6 NS=   256 Truncation Error =  0.000533379
      PEZero:  N= 7 I= 6 D=  1.09D-04 Err=  2.32D-03
      PEZero:  N= 7 I= 5 D=  2.17D-04 Err=  1.79D-03
      PEZero:  N= 7 I= 4 D=  4.35D-04 Err=  1.17D-03
      PEZero:  N= 7 I= 3 D=  6.52D-04 Err=  8.32D-04
      PEZero:  N= 7 I= 2 D=  1.09D-03 Err=  5.26D-04
      PEZero:  N= 7 I= 1 D=  1.52D-03 Err=  3.75D-04
    Cycle     7 NS=   384 Truncation Error =  0.000374555
      PEZero:  N= 8 I= 7 D=  5.43D-05 Err=  3.50D-03
      PEZero:  N= 8 I= 6 D=  1.63D-04 Err=  2.37D-03
      PEZero:  N= 8 I= 5 D=  2.72D-04 Err=  1.78D-03
      PEZero:  N= 8 I= 4 D=  4.89D-04 Err=  1.19D-03
      PEZero:  N= 8 I= 3 D=  7.06D-04 Err=  9.12D-04
      PEZero:  N= 8 I= 2 D=  1.14D-03 Err=  6.20D-04
      PEZero:  N= 8 I= 1 D=  1.58D-03 Err=  4.75D-04
    Cycle     8 NS=   512 Truncation Error =  0.000474501
      PEZero:  N= 9 I= 8 D=  5.43D-05 Err=  4.84D-03
      PEZero:  N= 9 I= 7 D=  1.09D-04 Err=  3.76D-03
      PEZero:  N= 9 I= 6 D=  2.17D-04 Err=  2.57D-03
      PEZero:  N= 9 I= 5 D=  3.26D-04 Err=  1.98D-03
      PEZero:  N= 9 I= 4 D=  5.43D-04 Err=  1.35D-03
      PEZero:  N= 9 I= 3 D=  7.61D-04 Err=  1.02D-03
      PEZero:  N= 9 I= 2 D=  1.20D-03 Err=  6.88D-04
      PEZero:  N= 9 I= 1 D=  1.63D-03 Err=  5.19D-04
    Cycle     9 NS=   768 Truncation Error =  0.000518926
      PEZero:  N=10 I= 9 D=  2.72D-05 Err=  7.54D-03
      PEZero:  N=10 I= 8 D=  8.15D-05 Err=  5.21D-03
      PEZero:  N=10 I= 7 D=  1.36D-04 Err=  3.99D-03
      PEZero:  N=10 I= 6 D=  2.44D-04 Err=  2.69D-03
      PEZero:  N=10 I= 5 D=  3.53D-04 Err=  2.03D-03
      PEZero:  N=10 I= 4 D=  5.70D-04 Err=  1.35D-03
      PEZero:  N=10 I= 3 D=  7.88D-04 Err=  1.01D-03
      PEZero:  N=10 I= 2 D=  1.22D-03 Err=  6.75D-04
      PEZero:  N=10 I= 1 D=  1.66D-03 Err=  5.05D-04
    Cycle    10 NS=  1024 Truncation Error =  0.000505262
      PEZero:  N=11 I=10 D=  2.72D-05 Err=  1.07D-02
      PEZero:  N=11 I= 9 D=  5.43D-05 Err=  8.51D-03
      PEZero:  N=11 I= 8 D=  1.09D-04 Err=  5.91D-03
      PEZero:  N=11 I= 7 D=  1.63D-04 Err=  4.58D-03
      PEZero:  N=11 I= 6 D=  2.72D-04 Err=  3.12D-03
      PEZero:  N=11 I= 5 D=  3.80D-04 Err=  2.39D-03
      PEZero:  N=11 I= 4 D=  5.98D-04 Err=  1.61D-03
      PEZero:  N=11 I= 3 D=  8.15D-04 Err=  1.22D-03
      PEZero:  N=11 I= 2 D=  1.25D-03 Err=  8.22D-04
      PEZero:  N=11 I= 1 D=  1.68D-03 Err=  6.20D-04
    Cycle    11 NS=  1536 Truncation Error =  0.000619922
 Maximum DWI energy   std dev =  0.000000107 at pt     2
 Maximum DWI gradient std dev =  1.295554755 at pt    11
 WARNING: Bulirsch-Stoer Method is not Converging
 SUMMARY OF CORRECTOR INTEGRATION:
   Predictor End Point Energy =  -305.949326
   Old End Point Energy       =  -305.949326
   Corrected End Point Energy =  -305.949326
   Predictor End-Start Dist.  =     0.166880
   Old End-Start Dist.        =     0.126714
   New End-Start Dist.        =     0.126291
   New End-Old End Dist.      =     0.001127
 CORRECTOR INTEGRATION CONVERGENCE:
   Recorrection delta-x convergence threshold:    0.010000
   Delta-x Convergence NOT Met
 Maximum number of corrector steps exceded.
 Error termination via Lnk1e in /shared/centos7/gaussian/g16/l123.exe at Sat Jun 22 15:17:59 2019.
 Job cpu time:       0 days  6 hours 35 minutes  0.8 seconds.
 Elapsed time:       0 days  0 hours 20 minutes 16.8 seconds.
 File lengths (MBytes):  RWF=   1360 Int=      0 D2E=      0 Chk=     32 Scr=     32
