 Entering Gaussian System, Link 0=g16
 Input=/scratch/harms.n//autotst-2.0-QMScratch/ts/CCO+[O]O_OO+[CH2]CO/irc/CCO+[O]O_OO+[CH2]CO_irc_reverse_2.com
 Output=/scratch/harms.n//autotst-2.0-QMScratch/ts/CCO+[O]O_OO+[CH2]CO/irc/CCO+[O]O_OO+[CH2]CO_irc_reverse_2.log
 Initial command:
 /shared/centos7/gaussian/g16/l1.exe "/scratch/harms.n/gauss_scrdir/Gau-17270.inp" -scrdir="/scratch/harms.n/gauss_scrdir/"
 Entering Link 1 = /shared/centos7/gaussian/g16/l1.exe PID=     17271.
  
 Copyright (c) 1988,1990,1992,1993,1995,1998,2003,2009,2016,
            Gaussian, Inc.  All Rights Reserved.
  
 This is part of the Gaussian(R) 16 program.  It is based on
 the Gaussian(R) 09 system (copyright 2009, Gaussian, Inc.),
 the Gaussian(R) 03 system (copyright 2003, Gaussian, Inc.),
 the Gaussian(R) 98 system (copyright 1998, Gaussian, Inc.),
 the Gaussian(R) 94 system (copyright 1995, Gaussian, Inc.),
 the Gaussian 92(TM) system (copyright 1992, Gaussian, Inc.),
 the Gaussian 90(TM) system (copyright 1990, Gaussian, Inc.),
 the Gaussian 88(TM) system (copyright 1988, Gaussian, Inc.),
 the Gaussian 86(TM) system (copyright 1986, Carnegie Mellon
 University), and the Gaussian 82(TM) system (copyright 1983,
 Carnegie Mellon University). Gaussian is a federally registered
 trademark of Gaussian, Inc.
  
 This software contains proprietary and confidential information,
 including trade secrets, belonging to Gaussian, Inc.
  
 This software is provided under written license and may be
 used, copied, transmitted, or stored only in accord with that
 written license.
  
 The following legend is applicable only to US Government
 contracts under FAR:
  
                    RESTRICTED RIGHTS LEGEND
  
 Use, reproduction and disclosure by the US Government is
 subject to restrictions as set forth in subparagraphs (a)
 and (c) of the Commercial Computer Software - Restricted
 Rights clause in FAR 52.227-19.
  
 Gaussian, Inc.
 340 Quinnipiac St., Bldg. 40, Wallingford CT 06492
  
  
 ---------------------------------------------------------------
 Warning -- This program may not be used in any manner that
 competes with the business of Gaussian, Inc. or will provide
 assistance to any competitor of Gaussian, Inc.  The licensee
 of this program is prohibited from giving any competitor of
 Gaussian, Inc. access to this program.  By using this program,
 the user acknowledges that Gaussian, Inc. is engaged in the
 business of creating and licensing software in the field of
 computational chemistry and represents and warrants to the
 licensee that it is not a competitor of Gaussian, Inc. and that
 it will not use this program in any manner prohibited above.
 ---------------------------------------------------------------
  

 Cite this work as:
 Gaussian 16, Revision A.03,
 M. J. Frisch, G. W. Trucks, H. B. Schlegel, G. E. Scuseria, 
 M. A. Robb, J. R. Cheeseman, G. Scalmani, V. Barone, 
 G. A. Petersson, H. Nakatsuji, X. Li, M. Caricato, A. V. Marenich, 
 J. Bloino, B. G. Janesko, R. Gomperts, B. Mennucci, H. P. Hratchian, 
 J. V. Ortiz, A. F. Izmaylov, J. L. Sonnenberg, D. Williams-Young, 
 F. Ding, F. Lipparini, F. Egidi, J. Goings, B. Peng, A. Petrone, 
 T. Henderson, D. Ranasinghe, V. G. Zakrzewski, J. Gao, N. Rega, 
 G. Zheng, W. Liang, M. Hada, M. Ehara, K. Toyota, R. Fukuda, 
 J. Hasegawa, M. Ishida, T. Nakajima, Y. Honda, O. Kitao, H. Nakai, 
 T. Vreven, K. Throssell, J. A. Montgomery, Jr., J. E. Peralta, 
 F. Ogliaro, M. J. Bearpark, J. J. Heyd, E. N. Brothers, K. N. Kudin, 
 V. N. Staroverov, T. A. Keith, R. Kobayashi, J. Normand, 
 K. Raghavachari, A. P. Rendell, J. C. Burant, S. S. Iyengar, 
 J. Tomasi, M. Cossi, J. M. Millam, M. Klene, C. Adamo, R. Cammi, 
 J. W. Ochterski, R. L. Martin, K. Morokuma, O. Farkas, 
 J. B. Foresman, and D. J. Fox, Gaussian, Inc., Wallingford CT, 2016.
 
 ******************************************
 Gaussian 16:  EM64L-G16RevA.03 25-Dec-2016
                22-Jun-2019 
 ******************************************
 %nprocshared=20
 Will use up to   20 processors via shared memory.
 %mem=5GB
 ------------------------------
 #p m062x/cc-pVTZ irc=(calcall)
 ------------------------------
 1/10=4,18=10,26=3,38=1,44=3,71=1,172=1/1,23;
 2/12=2,17=6,18=5,29=1,40=1/2;
 3/5=16,6=1,11=2,25=1,30=1,71=2,74=-55,140=1/1,2,3;
 4//1;
 5/5=2,38=5/2;
 8/6=4,10=90,11=11/1;
 11/6=1,8=1,9=11,15=111,16=1/1,2,10;
 10/6=1,13=1/2;
 6/7=2,8=2,9=2,10=2,18=1,28=1/1;
 7/10=1,25=1/1,2,3,16;
 1/10=4,18=10,26=3,44=3,71=1/23(2);
 2/29=1/2;
 99/5=20/99;
 2/29=1/2;
 3/5=16,6=1,11=2,25=1,30=1,71=2,74=-55,140=1/1,2,3;
 4/5=5,16=3,69=1/1;
 5/5=2,38=5/2;
 8/6=4,10=90,11=11/1;
 11/6=1,8=1,9=11,15=111,16=1/1,2,10;
 10/6=1,13=1/2;
 7/10=1,25=1/1,2,3,16;
 1/10=4,18=10,26=3,44=3,71=1/23(-8);
 2/29=1/2;
 6/7=2,8=2,9=2,10=2,18=1,19=2,28=1/1;
 99/5=20/99;
 Leave Link    1 at Sat Jun 22 14:03:01 2019, MaxMem=   671088640 cpu:              12.8 elap:               0.7
 (Enter /shared/centos7/gaussian/g16/l101.exe)
 ------------------------------
 Gaussian input prepared by ASE
 ------------------------------
 Symbolic Z-matrix:
 Charge =  0 Multiplicity = 2
 O                    -0.41685  -1.09054  -0.18729 
 O                     1.84908  -0.03819   0.64548 
 O                     1.94887   0.42698  -0.57213 
 C                    -1.65593  -0.42829   0.07611 
 C                    -1.53235   1.09859   0.05194 
 H                    -1.96182  -0.78526   1.05658 
 H                    -2.39972  -0.77472  -0.64292 
 H                    -2.17714   1.5438   -0.70322 
 H                    -1.78815   1.54005   1.01302 
 H                    -0.07463  -0.78291  -1.0351 
 H                     0.98779  -0.53341   0.6321 
 H                    -0.50545   1.38466  -0.17717 
 
 ITRead=  0  0  0  0  0  0  0  0  0  0  0  0
 MicOpt= -1 -1 -1 -1 -1 -1 -1 -1 -1 -1 -1 -1
 NAtoms=     12 NQM=       12 NQMF=       0 NMMI=      0 NMMIF=      0
                NMic=       0 NMicF=      0.
                    Isotopes and Nuclear Properties:
 (Nuclear quadrupole moments (NQMom) in fm**2, nuclear magnetic moments (NMagM)
  in nuclear magnetons)

  Atom         1           2           3           4           5           6           7           8           9          10
 IAtWgt=          16          16          16          12          12           1           1           1           1           1
 AtmWgt=  15.9949146  15.9949146  15.9949146  12.0000000  12.0000000   1.0078250   1.0078250   1.0078250   1.0078250   1.0078250
 NucSpn=           0           0           0           0           0           1           1           1           1           1
 AtZEff=  -0.0000000  -0.0000000  -0.0000000  -0.0000000  -0.0000000  -0.0000000  -0.0000000  -0.0000000  -0.0000000  -0.0000000
 NQMom=    0.0000000   0.0000000   0.0000000   0.0000000   0.0000000   0.0000000   0.0000000   0.0000000   0.0000000   0.0000000
 NMagM=    0.0000000   0.0000000   0.0000000   0.0000000   0.0000000   2.7928460   2.7928460   2.7928460   2.7928460   2.7928460
 AtZNuc=   8.0000000   8.0000000   8.0000000   6.0000000   6.0000000   1.0000000   1.0000000   1.0000000   1.0000000   1.0000000

  Atom        11          12
 IAtWgt=           1           1
 AtmWgt=   1.0078250   1.0078250
 NucSpn=           1           1
 AtZEff=  -0.0000000  -0.0000000
 NQMom=    0.0000000   0.0000000
 NMagM=    2.7928460   2.7928460
 AtZNuc=   1.0000000   1.0000000
 Leave Link  101 at Sat Jun 22 14:03:01 2019, MaxMem=   671088640 cpu:               2.9 elap:               0.2
 (Enter /shared/centos7/gaussian/g16/l123.exe)
 IRC-IRC-IRC-IRC-IRC-IRC-IRC-IRC-IRC-IRC-IRC-IRC-IRC-IRC-IRC-IRC-IRC-IRC
 ------------------------------------------------------------------------
 INPUT DATA FOR L123
 ------------------------------------------------------------------------
 GENERAL PARAMETERS:
 Follow reaction path in both directions.
 Maximum points per path      =  10
 Step size                    =   0.100 bohr
 Integration scheme           = HPC                                 
    Redo corrector integration= Yes                                 
    DWI Weight Power          =  2
    DWI will use Hessian update vectors when possible.
    Max correction cycles     =  20
 Initial Hessian              = CalcFC
 Hessian evaluation           = Analytic at all predictor steps
                              = Update at all corrector steps
 Hessian updating method      = Bofill                              
 ------------------------------------------------------------------------
 IRC-IRC-IRC-IRC-IRC-IRC-IRC-IRC-IRC-IRC-IRC-IRC-IRC-IRC-IRC-IRC-IRC-IRC
 Leave Link  123 at Sat Jun 22 14:03:01 2019, MaxMem=   671088640 cpu:               0.4 elap:               0.0
 (Enter /shared/centos7/gaussian/g16/l202.exe)
                          Input orientation:                          
 ---------------------------------------------------------------------
 Center     Atomic      Atomic             Coordinates (Angstroms)
 Number     Number       Type             X           Y           Z
 ---------------------------------------------------------------------
      1          8           0       -0.416846   -1.090543   -0.187293
      2          8           0        1.849079   -0.038191    0.645483
      3          8           0        1.948870    0.426983   -0.572132
      4          6           0       -1.655932   -0.428291    0.076105
      5          6           0       -1.532352    1.098590    0.051936
      6          1           0       -1.961821   -0.785259    1.056583
      7          1           0       -2.399719   -0.774717   -0.642924
      8          1           0       -2.177137    1.543798   -0.703221
      9          1           0       -1.788146    1.540047    1.013020
     10          1           0       -0.074628   -0.782908   -1.035095
     11          1           0        0.987786   -0.533412    0.632096
     12          1           0       -0.505451    1.384661   -0.177167
 ---------------------------------------------------------------------
                    Distance matrix (angstroms):
                    1          2          3          4          5
     1  O    0.000000
     2  O    2.633510   0.000000
     3  O    2.836829   1.307261   0.000000
     4  C    1.429437   3.572320   3.761157   0.000000
     5  C    2.468580   3.616441   3.599920   1.532065   0.000000
     6  H    2.006832   3.905134   4.406330   1.087351   2.177762
     7  H    2.058915   4.500527   4.512130   1.090978   2.178172
     8  H    3.210071   4.531237   4.276493   2.183607   1.088219
     9  H    3.200190   3.981874   4.209146   2.183952   1.088116
    10  H    0.964635   2.660751   2.402648   1.964953   2.616607
    11  H    1.718949   0.993604   1.815546   2.703594   3.057959
    12  H    2.476810   2.871423   2.663989   2.162070   1.090344
                    6          7          8          9         10
     6  H    0.000000
     7  H    1.755047   0.000000
     8  H    2.927077   2.329955   0.000000
     9  H    2.332190   2.911066   1.759776   0.000000
    10  H    2.817201   2.357947   3.153450   3.539356   0.000000
    11  H    2.990618   3.627547   4.014301   3.485704   1.992611
    12  H    2.889932   2.909999   1.759713   1.756700   2.370655
                   11         12
    11  H    0.000000
    12  H    2.561966   0.000000
 Symmetry turned off by external request.
 Stoichiometry    C2H7O3(2)
 Framework group  C1[X(C2H7O3)]
 Deg. of freedom    30
 Full point group                 C1      NOp   1
 Rotational constants (GHZ):           7.8336116           2.3538372           2.0633992
 Leave Link  202 at Sat Jun 22 14:03:02 2019, MaxMem=   671088640 cpu:               0.3 elap:               0.0
 (Enter /shared/centos7/gaussian/g16/l301.exe)
 Standard basis: CC-pVTZ (5D, 7F)
 Ernie: Thresh=  0.10000D-02 Tol=  0.10000D-05 Strict=F.
 Ernie:  15 primitive shells out of 186 were deleted.
   248 basis functions,   379 primitive gaussians,   280 cartesian basis functions
    22 alpha electrons       21 beta electrons
       nuclear repulsion energy       186.7651412072 Hartrees.
 IExCor= 4336 DFT=T Ex+Corr=M062X ExCW=0 ScaHFX=  0.540000
 ScaDFX=  1.000000  1.000000  1.000000  1.000000 ScalE2=  1.000000  1.000000
 IRadAn=      5 IRanWt=     -1 IRanGd=            0 ICorTp=0 IEmpDi=  4
 NAtoms=   12 NActive=   12 NUniq=   12 SFac= 1.00D+00 NAtFMM=   60 NAOKFM=F Big=F
 Integral buffers will be    131072 words long.
 Raffenetti 2 integral format.
 Two-electron integral symmetry is turned off.
 Leave Link  301 at Sat Jun 22 14:03:02 2019, MaxMem=   671088640 cpu:               1.3 elap:               0.1
 (Enter /shared/centos7/gaussian/g16/l302.exe)
 NPDir=0 NMtPBC=     1 NCelOv=     1 NCel=       1 NClECP=     1 NCelD=      1
         NCelK=      1 NCelE2=     1 NClLst=     1 CellRange=     0.0.
 One-electron integrals computed using PRISM.
 NBasis=   248 RedAO= T EigKep=  8.03D-04  NBF=   248
 NBsUse=   248 1.00D-06 EigRej= -1.00D+00 NBFU=   248
 Precomputing XC quadrature grid using
 IXCGrd= 4 IRadAn=           5 IRanWt=          -1 IRanGd=           0 AccXCQ= 0.00D+00.
 Generated NRdTot=       0 NPtTot=           0 NUsed=           0 NTot=          32
 NSgBfM=   280   280   280   280   280 MxSgAt=    12 MxSgA2=    12.
 Leave Link  302 at Sat Jun 22 14:03:02 2019, MaxMem=   671088640 cpu:               4.4 elap:               0.2
 (Enter /shared/centos7/gaussian/g16/l303.exe)
 DipDrv:  MaxL=1.
 Leave Link  303 at Sat Jun 22 14:03:02 2019, MaxMem=   671088640 cpu:               0.8 elap:               0.1
 (Enter /shared/centos7/gaussian/g16/l401.exe)
 ExpMin= 1.03D-01 ExpMax= 1.53D+04 ExpMxC= 5.22D+02 IAcc=3 IRadAn=         5 AccDes= 0.00D+00
 Harris functional with IExCor= 1009 and IRadAn=       5 diagonalized for initial guess.
 HarFok:  IExCor= 1009 AccDes= 0.00D+00 IRadAn=         5 IDoV= 1 UseB2=F ITyADJ=14
 ICtDFT=  3500011 ScaDFX=  1.000000  1.000000  1.000000  1.000000
 FoFCou: FMM=F IPFlag=           0 FMFlag=      100000 FMFlg1=           0
         NFxFlg=           0 DoJE=T BraDBF=F KetDBF=T FulRan=T
         wScrn=  0.000000 ICntrl=       500 IOpCl=  0 I1Cent=   200000004 NGrid=           0
         NMat0=    1 NMatS0=      1 NMatT0=    0 NMatD0=    1 NMtDS0=    0 NMtDT0=    0
 Symmetry not used in FoFCou.
 Harris En= -305.811391998299    
 JPrj=0 DoOrth=F DoCkMO=F.
 Initial guess <Sx>= 0.0000 <Sy>= 0.0000 <Sz>= 0.5000 <S**2>= 0.7500 S= 0.5000
 Leave Link  401 at Sat Jun 22 14:03:03 2019, MaxMem=   671088640 cpu:              13.2 elap:               0.7
 (Enter /shared/centos7/gaussian/g16/l502.exe)
 Two-electron integral symmetry not used.
 UHF open shell SCF:
 Using DIIS extrapolation, IDIIS=  1040.
 NGot=   671088640 LenX=   670924296 LenY=   670845455
 Requested convergence on RMS density matrix=1.00D-08 within 128 cycles.
 Requested convergence on MAX density matrix=1.00D-06.
 Requested convergence on             energy=1.00D-06.
 No special actions if energy rises.
 Fock matrices will be formed incrementally for  20 cycles.
 Integral accuracy reduced to 1.0D-05 until final iterations.

 Cycle   1  Pass 0  IDiag  1:
 FoFJK:  IHMeth= 1 ICntrl=       0 DoSepK=F KAlg= 0 I1Cent=           0 FoldK=F
 IRaf= 970000000 NMat=       1 IRICut=       1 DoRegI=T DoRafI=F ISym2E= 0 IDoP0=0 IntGTp=1.
 FoFCou: FMM=F IPFlag=           0 FMFlag=      100000 FMFlg1=           0
         NFxFlg=           0 DoJE=F BraDBF=F KetDBF=F FulRan=T
         wScrn=  0.000000 ICntrl=         0 IOpCl=  1 I1Cent=           0 NGrid=           0
         NMat0=    1 NMatS0=      1 NMatT0=    0 NMatD0=    1 NMtDS0=    0 NMtDT0=    0
 Symmetry not used in FoFCou.
 E= -305.803976515321    
 DIIS: error= 2.58D-02 at cycle   1 NSaved=   1.
 NSaved= 1 IEnMin= 1 EnMin= -305.803976515321     IErMin= 1 ErrMin= 2.58D-02
 ErrMax= 2.58D-02  0.00D+00 EMaxC= 1.00D-01 BMatC= 7.98D-01 BMatP= 7.98D-01
 IDIUse=3 WtCom= 7.42D-01 WtEn= 2.58D-01
 Coeff-Com:  0.100D+01
 Coeff-En:   0.100D+01
 Coeff:      0.100D+01
 Gap=     0.456 Goal=   None    Shift=    0.000
 Gap=     0.280 Goal=   None    Shift=    0.000
 GapD=    0.280 DampG=1.000 DampE=0.500 DampFc=0.5000 IDamp=-1.
 Damping current iteration by 5.00D-01
 RMSDP=1.76D-03 MaxDP=7.88D-02              OVMax= 1.40D-01

 Cycle   2  Pass 0  IDiag  1:
 RMSU=  8.80D-04    CP:  9.98D-01
 E= -305.875651395617     Delta-E=       -0.071674880296 Rises=F Damp=T
 DIIS: error= 9.39D-03 at cycle   2 NSaved=   2.
 NSaved= 2 IEnMin= 2 EnMin= -305.875651395617     IErMin= 2 ErrMin= 9.39D-03
 ErrMax= 9.39D-03  0.00D+00 EMaxC= 1.00D-01 BMatC= 7.57D-02 BMatP= 7.98D-01
 IDIUse=3 WtCom= 9.06D-01 WtEn= 9.39D-02
 Coeff-Com: -0.131D+00 0.113D+01
 Coeff-En:   0.000D+00 0.100D+01
 Coeff:     -0.119D+00 0.112D+01
 Gap=     0.451 Goal=   None    Shift=    0.000
 Gap=     0.341 Goal=   None    Shift=    0.000
 RMSDP=4.24D-04 MaxDP=1.49D-02 DE=-7.17D-02 OVMax= 6.76D-02

 Cycle   3  Pass 0  IDiag  1:
 RMSU=  4.19D-04    CP:  1.00D+00  1.05D+00
 E= -305.941273743855     Delta-E=       -0.065622348238 Rises=F Damp=F
 DIIS: error= 5.23D-03 at cycle   3 NSaved=   3.
 NSaved= 3 IEnMin= 3 EnMin= -305.941273743855     IErMin= 3 ErrMin= 5.23D-03
 ErrMax= 5.23D-03  0.00D+00 EMaxC= 1.00D-01 BMatC= 2.04D-02 BMatP= 7.57D-02
 IDIUse=3 WtCom= 9.48D-01 WtEn= 5.23D-02
 Coeff-Com: -0.103D+00 0.387D+00 0.717D+00
 Coeff-En:   0.000D+00 0.000D+00 0.100D+01
 Coeff:     -0.981D-01 0.366D+00 0.732D+00
 Gap=     0.421 Goal=   None    Shift=    0.000
 Gap=     0.285 Goal=   None    Shift=    0.000
 RMSDP=1.83D-04 MaxDP=7.64D-03 DE=-6.56D-02 OVMax= 3.52D-02

 Cycle   4  Pass 0  IDiag  1:
 RMSU=  1.53D-04    CP:  1.00D+00  1.13D+00  8.18D-01
 E= -305.943414952734     Delta-E=       -0.002141208879 Rises=F Damp=F
 DIIS: error= 3.73D-03 at cycle   4 NSaved=   4.
 NSaved= 4 IEnMin= 4 EnMin= -305.943414952734     IErMin= 4 ErrMin= 3.73D-03
 ErrMax= 3.73D-03  0.00D+00 EMaxC= 1.00D-01 BMatC= 8.65D-03 BMatP= 2.04D-02
 IDIUse=3 WtCom= 9.63D-01 WtEn= 3.73D-02
 Coeff-Com: -0.410D-01 0.100D+00 0.431D+00 0.510D+00
 Coeff-En:   0.000D+00 0.000D+00 0.269D+00 0.731D+00
 Coeff:     -0.395D-01 0.967D-01 0.425D+00 0.518D+00
 Gap=     0.417 Goal=   None    Shift=    0.000
 Gap=     0.288 Goal=   None    Shift=    0.000
 RMSDP=8.42D-05 MaxDP=3.55D-03 DE=-2.14D-03 OVMax= 9.77D-03

 Cycle   5  Pass 0  IDiag  1:
 RMSU=  5.17D-05    CP:  1.00D+00  1.13D+00  9.00D-01  6.30D-01
 E= -305.944781043079     Delta-E=       -0.001366090345 Rises=F Damp=F
 DIIS: error= 8.19D-04 at cycle   5 NSaved=   5.
 NSaved= 5 IEnMin= 5 EnMin= -305.944781043079     IErMin= 5 ErrMin= 8.19D-04
 ErrMax= 8.19D-04  0.00D+00 EMaxC= 1.00D-01 BMatC= 2.48D-04 BMatP= 8.65D-03
 IDIUse=3 WtCom= 9.92D-01 WtEn= 8.19D-03
 Coeff-Com: -0.657D-02 0.936D-02 0.116D+00 0.185D+00 0.696D+00
 Coeff-En:   0.000D+00 0.000D+00 0.000D+00 0.000D+00 0.100D+01
 Coeff:     -0.652D-02 0.928D-02 0.115D+00 0.184D+00 0.699D+00
 Gap=     0.416 Goal=   None    Shift=    0.000
 Gap=     0.288 Goal=   None    Shift=    0.000
 RMSDP=2.47D-05 MaxDP=1.31D-03 DE=-1.37D-03 OVMax= 6.27D-03

 Cycle   6  Pass 0  IDiag  1:
 RMSU=  2.12D-05    CP:  1.00D+00  1.13D+00  9.20D-01  6.89D-01  9.47D-01
 E= -305.944849320162     Delta-E=       -0.000068277083 Rises=F Damp=F
 DIIS: error= 5.28D-04 at cycle   6 NSaved=   6.
 NSaved= 6 IEnMin= 6 EnMin= -305.944849320162     IErMin= 6 ErrMin= 5.28D-04
 ErrMax= 5.28D-04  0.00D+00 EMaxC= 1.00D-01 BMatC= 1.05D-04 BMatP= 2.48D-04
 IDIUse=3 WtCom= 9.95D-01 WtEn= 5.28D-03
 Coeff-Com:  0.434D-02-0.137D-01-0.203D-01-0.278D-01 0.352D+00 0.706D+00
 Coeff-En:   0.000D+00 0.000D+00 0.000D+00 0.000D+00 0.000D+00 0.100D+01
 Coeff:      0.432D-02-0.137D-01-0.202D-01-0.277D-01 0.350D+00 0.707D+00
 Gap=     0.417 Goal=   None    Shift=    0.000
 Gap=     0.289 Goal=   None    Shift=    0.000
 RMSDP=1.61D-05 MaxDP=7.74D-04 DE=-6.83D-05 OVMax= 2.46D-03

 Cycle   7  Pass 0  IDiag  1:
 RMSU=  9.00D-06    CP:  1.00D+00  1.13D+00  9.28D-01  7.12D-01  1.18D+00
                    CP:  1.11D+00
 E= -305.944881744492     Delta-E=       -0.000032424330 Rises=F Damp=F
 DIIS: error= 1.94D-04 at cycle   7 NSaved=   7.
 NSaved= 7 IEnMin= 7 EnMin= -305.944881744492     IErMin= 7 ErrMin= 1.94D-04
 ErrMax= 1.94D-04  0.00D+00 EMaxC= 1.00D-01 BMatC= 1.63D-05 BMatP= 1.05D-04
 IDIUse=3 WtCom= 9.98D-01 WtEn= 1.94D-03
 Coeff-Com:  0.325D-02-0.595D-02-0.403D-01-0.874D-01-0.115D+00 0.610D-01
 Coeff-Com:  0.118D+01
 Coeff-En:   0.000D+00 0.000D+00 0.000D+00 0.000D+00 0.000D+00 0.000D+00
 Coeff-En:   0.100D+01
 Coeff:      0.324D-02-0.594D-02-0.403D-01-0.872D-01-0.115D+00 0.609D-01
 Coeff:      0.118D+01
 Gap=     0.417 Goal=   None    Shift=    0.000
 Gap=     0.289 Goal=   None    Shift=    0.000
 RMSDP=1.50D-05 MaxDP=6.16D-04 DE=-3.24D-05 OVMax= 3.67D-03

 Cycle   8  Pass 0  IDiag  1:
 RMSU=  4.43D-06    CP:  1.00D+00  1.13D+00  9.36D-01  7.28D-01  1.38D+00
                    CP:  1.50D+00  1.48D+00
 E= -305.944896203200     Delta-E=       -0.000014458709 Rises=F Damp=F
 DIIS: error= 7.90D-05 at cycle   8 NSaved=   8.
 NSaved= 8 IEnMin= 8 EnMin= -305.944896203200     IErMin= 8 ErrMin= 7.90D-05
 ErrMax= 7.90D-05  0.00D+00 EMaxC= 1.00D-01 BMatC= 2.85D-06 BMatP= 1.63D-05
 IDIUse=1 WtCom= 1.00D+00 WtEn= 0.00D+00
 Coeff-Com: -0.640D-03 0.214D-02 0.401D-02-0.380D-02-0.412D-01-0.148D+00
 Coeff-Com:  0.667D-01 0.112D+01
 Coeff:     -0.640D-03 0.214D-02 0.401D-02-0.380D-02-0.412D-01-0.148D+00
 Coeff:      0.667D-01 0.112D+01
 Gap=     0.417 Goal=   None    Shift=    0.000
 Gap=     0.289 Goal=   None    Shift=    0.000
 RMSDP=5.93D-06 MaxDP=2.76D-04 DE=-1.45D-05 OVMax= 1.48D-03

 Initial convergence to 1.0D-05 achieved.  Increase integral accuracy.
 Cycle   9  Pass 1  IDiag  1:
 E= -305.944880235598     Delta-E=        0.000015967602 Rises=F Damp=F
 DIIS: error= 3.68D-05 at cycle   1 NSaved=   1.
 NSaved= 1 IEnMin= 1 EnMin= -305.944880235598     IErMin= 1 ErrMin= 3.68D-05
 ErrMax= 3.68D-05  0.00D+00 EMaxC= 1.00D-01 BMatC= 1.50D-06 BMatP= 1.50D-06
 IDIUse=1 WtCom= 1.00D+00 WtEn= 0.00D+00
 Coeff-Com:  0.100D+01
 Coeff:      0.100D+01
 Gap=     0.418 Goal=   None    Shift=    0.000
 Gap=     0.289 Goal=   None    Shift=    0.000
 RMSDP=5.93D-06 MaxDP=2.76D-04 DE= 1.60D-05 OVMax= 2.18D-04

 Cycle  10  Pass 1  IDiag  1:
 RMSU=  4.07D-06    CP:  1.00D+00
 E= -305.944880549775     Delta-E=       -0.000000314177 Rises=F Damp=F
 DIIS: error= 3.29D-05 at cycle   2 NSaved=   2.
 NSaved= 2 IEnMin= 2 EnMin= -305.944880549775     IErMin= 2 ErrMin= 3.29D-05
 ErrMax= 3.29D-05  0.00D+00 EMaxC= 1.00D-01 BMatC= 3.80D-07 BMatP= 1.50D-06
 IDIUse=1 WtCom= 1.00D+00 WtEn= 0.00D+00
 Coeff-Com:  0.249D+00 0.751D+00
 Coeff:      0.249D+00 0.751D+00
 Gap=     0.417 Goal=   None    Shift=    0.000
 Gap=     0.289 Goal=   None    Shift=    0.000
 RMSDP=1.06D-06 MaxDP=5.15D-05 DE=-3.14D-07 OVMax= 2.36D-04

 Cycle  11  Pass 1  IDiag  1:
 RMSU=  1.06D-06    CP:  1.00D+00  1.00D+00
 E= -305.944880641250     Delta-E=       -0.000000091474 Rises=F Damp=F
 DIIS: error= 2.18D-05 at cycle   3 NSaved=   3.
 NSaved= 3 IEnMin= 3 EnMin= -305.944880641250     IErMin= 3 ErrMin= 2.18D-05
 ErrMax= 2.18D-05  0.00D+00 EMaxC= 1.00D-01 BMatC= 2.38D-07 BMatP= 3.80D-07
 IDIUse=1 WtCom= 1.00D+00 WtEn= 0.00D+00
 Coeff-Com: -0.402D-01 0.422D+00 0.618D+00
 Coeff:     -0.402D-01 0.422D+00 0.618D+00
 Gap=     0.417 Goal=   None    Shift=    0.000
 Gap=     0.289 Goal=   None    Shift=    0.000
 RMSDP=6.32D-07 MaxDP=3.26D-05 DE=-9.15D-08 OVMax= 9.27D-05

 Cycle  12  Pass 1  IDiag  1:
 RMSU=  5.58D-07    CP:  1.00D+00  1.07D+00  9.43D-01
 E= -305.944880698991     Delta-E=       -0.000000057742 Rises=F Damp=F
 DIIS: error= 1.29D-05 at cycle   4 NSaved=   4.
 NSaved= 4 IEnMin= 4 EnMin= -305.944880698991     IErMin= 4 ErrMin= 1.29D-05
 ErrMax= 1.29D-05  0.00D+00 EMaxC= 1.00D-01 BMatC= 2.91D-08 BMatP= 2.38D-07
 IDIUse=1 WtCom= 1.00D+00 WtEn= 0.00D+00
 Coeff-Com: -0.574D-01 0.853D-01 0.196D+00 0.777D+00
 Coeff:     -0.574D-01 0.853D-01 0.196D+00 0.777D+00
 Gap=     0.417 Goal=   None    Shift=    0.000
 Gap=     0.289 Goal=   None    Shift=    0.000
 RMSDP=4.01D-07 MaxDP=2.82D-05 DE=-5.77D-08 OVMax= 1.07D-04

 Cycle  13  Pass 1  IDiag  1:
 RMSU=  2.84D-07    CP:  1.00D+00  1.11D+00  1.09D+00  1.33D+00
 E= -305.944880718951     Delta-E=       -0.000000019960 Rises=F Damp=F
 DIIS: error= 6.90D-06 at cycle   5 NSaved=   5.
 NSaved= 5 IEnMin= 5 EnMin= -305.944880718951     IErMin= 5 ErrMin= 6.90D-06
 ErrMax= 6.90D-06  0.00D+00 EMaxC= 1.00D-01 BMatC= 1.92D-08 BMatP= 2.91D-08
 IDIUse=1 WtCom= 1.00D+00 WtEn= 0.00D+00
 Coeff-Com:  0.151D-01-0.211D+00-0.458D+00 0.304D+00 0.135D+01
 Coeff:      0.151D-01-0.211D+00-0.458D+00 0.304D+00 0.135D+01
 Gap=     0.417 Goal=   None    Shift=    0.000
 Gap=     0.289 Goal=   None    Shift=    0.000
 RMSDP=6.32D-07 MaxDP=2.80D-05 DE=-2.00D-08 OVMax= 1.47D-04

 Cycle  14  Pass 1  IDiag  1:
 RMSU=  1.75D-07    CP:  1.00D+00  1.15D+00  1.32D+00  2.22D+00  1.64D+00
 E= -305.944880736619     Delta-E=       -0.000000017668 Rises=F Damp=F
 DIIS: error= 2.42D-06 at cycle   6 NSaved=   6.
 NSaved= 6 IEnMin= 6 EnMin= -305.944880736619     IErMin= 6 ErrMin= 2.42D-06
 ErrMax= 2.42D-06  0.00D+00 EMaxC= 1.00D-01 BMatC= 1.54D-09 BMatP= 1.92D-08
 IDIUse=1 WtCom= 1.00D+00 WtEn= 0.00D+00
 Coeff-Com:  0.902D-02-0.664D-01-0.158D+00 0.508D-01 0.380D+00 0.784D+00
 Coeff:      0.902D-02-0.664D-01-0.158D+00 0.508D-01 0.380D+00 0.784D+00
 Gap=     0.417 Goal=   None    Shift=    0.000
 Gap=     0.289 Goal=   None    Shift=    0.000
 RMSDP=1.56D-07 MaxDP=9.49D-06 DE=-1.77D-08 OVMax= 5.33D-05

 Cycle  15  Pass 1  IDiag  1:
 RMSU=  6.65D-08    CP:  1.00D+00  1.15D+00  1.36D+00  2.37D+00  1.85D+00
                    CP:  1.50D+00
 E= -305.944880738688     Delta-E=       -0.000000002069 Rises=F Damp=F
 DIIS: error= 1.95D-06 at cycle   7 NSaved=   7.
 NSaved= 7 IEnMin= 7 EnMin= -305.944880738688     IErMin= 7 ErrMin= 1.95D-06
 ErrMax= 1.95D-06  0.00D+00 EMaxC= 1.00D-01 BMatC= 8.72D-10 BMatP= 1.54D-09
 IDIUse=1 WtCom= 1.00D+00 WtEn= 0.00D+00
 Coeff-Com: -0.257D-02 0.534D-01 0.109D+00-0.881D-01-0.371D+00 0.307D+00
 Coeff-Com:  0.993D+00
 Coeff:     -0.257D-02 0.534D-01 0.109D+00-0.881D-01-0.371D+00 0.307D+00
 Coeff:      0.993D+00
 Gap=     0.417 Goal=   None    Shift=    0.000
 Gap=     0.289 Goal=   None    Shift=    0.000
 RMSDP=1.84D-07 MaxDP=1.09D-05 DE=-2.07D-09 OVMax= 6.84D-05

 Cycle  16  Pass 1  IDiag  1:
 RMSU=  5.12D-08    CP:  1.00D+00  1.16D+00  1.40D+00  2.50D+00  2.09D+00
                    CP:  2.23D+00  1.83D+00
 E= -305.944880740673     Delta-E=       -0.000000001985 Rises=F Damp=F
 DIIS: error= 1.57D-06 at cycle   8 NSaved=   8.
 NSaved= 8 IEnMin= 8 EnMin= -305.944880740673     IErMin= 8 ErrMin= 1.57D-06
 ErrMax= 1.57D-06  0.00D+00 EMaxC= 1.00D-01 BMatC= 4.38D-10 BMatP= 8.72D-10
 IDIUse=1 WtCom= 1.00D+00 WtEn= 0.00D+00
 Coeff-Com: -0.395D-02 0.275D-01 0.688D-01-0.225D-01-0.149D+00-0.379D+00
 Coeff-Com: -0.538D-01 0.151D+01
 Coeff:     -0.395D-02 0.275D-01 0.688D-01-0.225D-01-0.149D+00-0.379D+00
 Coeff:     -0.538D-01 0.151D+01
 Gap=     0.417 Goal=   None    Shift=    0.000
 Gap=     0.289 Goal=   None    Shift=    0.000
 RMSDP=2.35D-07 MaxDP=1.38D-05 DE=-1.98D-09 OVMax= 9.01D-05

 Cycle  17  Pass 1  IDiag  1:
 RMSU=  4.43D-08    CP:  1.00D+00  1.16D+00  1.44D+00  2.63D+00  2.36D+00
                    CP:  3.00D+00  3.00D+00  2.41D+00
 E= -305.944880742624     Delta-E=       -0.000000001951 Rises=F Damp=F
 DIIS: error= 1.07D-06 at cycle   9 NSaved=   9.
 NSaved= 9 IEnMin= 9 EnMin= -305.944880742624     IErMin= 9 ErrMin= 1.07D-06
 ErrMax= 1.07D-06  0.00D+00 EMaxC= 1.00D-01 BMatC= 2.37D-10 BMatP= 4.38D-10
 IDIUse=1 WtCom= 1.00D+00 WtEn= 0.00D+00
 Coeff-Com:  0.120D-02-0.392D-01-0.721D-01 0.598D-01 0.285D+00-0.333D+00
 Coeff-Com: -0.782D+00 0.193D+00 0.169D+01
 Coeff:      0.120D-02-0.392D-01-0.721D-01 0.598D-01 0.285D+00-0.333D+00
 Coeff:     -0.782D+00 0.193D+00 0.169D+01
 Gap=     0.417 Goal=   None    Shift=    0.000
 Gap=     0.289 Goal=   None    Shift=    0.000
 RMSDP=3.16D-07 MaxDP=1.80D-05 DE=-1.95D-09 OVMax= 1.22D-04

 Cycle  18  Pass 1  IDiag  1:
 RMSU=  2.05D-07    CP:  1.00D+00  1.17D+00  1.49D+00  2.80D+00  2.71D+00
                    CP:  3.00D+00  3.00D+00  3.00D+00  3.00D+00
 E= -305.944880744226     Delta-E=       -0.000000001602 Rises=F Damp=F
 DIIS: error= 4.71D-07 at cycle  10 NSaved=  10.
 NSaved=10 IEnMin=10 EnMin= -305.944880744226     IErMin=10 ErrMin= 4.71D-07
 ErrMax= 4.71D-07  0.00D+00 EMaxC= 1.00D-01 BMatC= 6.82D-11 BMatP= 2.37D-10
 IDIUse=1 WtCom= 1.00D+00 WtEn= 0.00D+00
 Coeff-Com:  0.253D-02-0.265D-01-0.555D-01 0.243D-01 0.165D+00 0.109D+00
 Coeff-Com: -0.182D+00-0.759D+00 0.456D+00 0.127D+01
 Coeff:      0.253D-02-0.265D-01-0.555D-01 0.243D-01 0.165D+00 0.109D+00
 Coeff:     -0.182D+00-0.759D+00 0.456D+00 0.127D+01
 Gap=     0.417 Goal=   None    Shift=    0.000
 Gap=     0.289 Goal=   None    Shift=    0.000
 RMSDP=2.11D-07 MaxDP=1.14D-05 DE=-1.60D-09 OVMax= 8.13D-05

 Cycle  19  Pass 1  IDiag  1:
 RMSU=  5.92D-08    CP:  1.00D+00  1.17D+00  1.53D+00  2.90D+00  2.94D+00
                    CP:  3.00D+00  3.00D+00  3.00D+00  3.00D+00  1.87D+00
 E= -305.944880744627     Delta-E=       -0.000000000401 Rises=F Damp=F
 DIIS: error= 9.16D-08 at cycle  11 NSaved=  11.
 NSaved=11 IEnMin=11 EnMin= -305.944880744627     IErMin=11 ErrMin= 9.16D-08
 ErrMax= 9.16D-08  0.00D+00 EMaxC= 1.00D-01 BMatC= 5.29D-12 BMatP= 6.82D-11
 IDIUse=1 WtCom= 1.00D+00 WtEn= 0.00D+00
 Coeff-Com: -0.149D-03 0.599D-02 0.119D-01-0.119D-01-0.436D-01 0.637D-01
 Coeff-Com:  0.132D+00-0.681D-01-0.293D+00 0.765D-01 0.113D+01
 Coeff:     -0.149D-03 0.599D-02 0.119D-01-0.119D-01-0.436D-01 0.637D-01
 Coeff:      0.132D+00-0.681D-01-0.293D+00 0.765D-01 0.113D+01
 Gap=     0.417 Goal=   None    Shift=    0.000
 Gap=     0.289 Goal=   None    Shift=    0.000
 RMSDP=4.82D-08 MaxDP=2.49D-06 DE=-4.01D-10 OVMax= 1.84D-05

 Cycle  20  Pass 1  IDiag  1:
 RMSU=  5.44D-09    CP:  1.00D+00  1.17D+00  1.54D+00  2.92D+00  2.99D+00
                    CP:  3.00D+00  3.00D+00  3.00D+00  3.00D+00  2.06D+00
                    CP:  1.25D+00
 E= -305.944880744644     Delta-E=       -0.000000000017 Rises=F Damp=F
 DIIS: error= 2.83D-08 at cycle  12 NSaved=  12.
 NSaved=12 IEnMin=12 EnMin= -305.944880744644     IErMin=12 ErrMin= 2.83D-08
 ErrMax= 2.83D-08  0.00D+00 EMaxC= 1.00D-01 BMatC= 2.78D-13 BMatP= 5.29D-12
 IDIUse=1 WtCom= 1.00D+00 WtEn= 0.00D+00
 Coeff-Com: -0.182D-03 0.260D-02 0.545D-02-0.356D-02-0.170D-01 0.122D-02
 Coeff-Com:  0.337D-01 0.369D-01-0.702D-01-0.710D-01 0.150D+00 0.932D+00
 Coeff:     -0.182D-03 0.260D-02 0.545D-02-0.356D-02-0.170D-01 0.122D-02
 Coeff:      0.337D-01 0.369D-01-0.702D-01-0.710D-01 0.150D+00 0.932D+00
 Gap=     0.417 Goal=   None    Shift=    0.000
 Gap=     0.289 Goal=   None    Shift=    0.000
 RMSDP=3.83D-09 MaxDP=2.00D-07 DE=-1.66D-11 OVMax= 1.35D-06

 SCF Done:  E(UM062X) =  -305.944880745     A.U. after   20 cycles
            NFock= 20  Conv=0.38D-08     -V/T= 2.0051
 <Sx>= 0.0000 <Sy>= 0.0000 <Sz>= 0.5000 <S**2>= 0.7550 S= 0.5025
 <L.S>= 0.000000000000E+00
 KE= 3.043793347223D+02 PE=-1.092506213767D+03 EE= 2.954168570934D+02
 Annihilation of the first spin contaminant:
 S**2 before annihilation     0.7550,   after     0.7500
 Leave Link  502 at Sat Jun 22 14:03:47 2019, MaxMem=   671088640 cpu:             884.8 elap:              44.3
 (Enter /shared/centos7/gaussian/g16/l801.exe)
 DoSCS=F DFT=T ScalE2(SS,OS)=  1.000000  1.000000
 Range of M.O.s used for correlation:     1   248
 NBasis=   248 NAE=    22 NBE=    21 NFC=     0 NFV=     0
 NROrb=    248 NOA=    22 NOB=    21 NVA=   226 NVB=   227

 **** Warning!!: The largest alpha MO coefficient is  0.10958430D+02


 **** Warning!!: The largest beta MO coefficient is  0.10687400D+02

 Leave Link  801 at Sat Jun 22 14:03:47 2019, MaxMem=   671088640 cpu:               2.7 elap:               0.2
 (Enter /shared/centos7/gaussian/g16/l1101.exe)
 Using compressed storage, NAtomX=    12.
 Will process     13 centers per pass.
 Leave Link 1101 at Sat Jun 22 14:03:48 2019, MaxMem=   671088640 cpu:               9.1 elap:               0.5
 (Enter /shared/centos7/gaussian/g16/l1102.exe)
 Symmetrizing basis deriv contribution to polar:
 IMax=3 JMax=2 DiffMx= 0.00D+00
 Leave Link 1102 at Sat Jun 22 14:03:48 2019, MaxMem=   671088640 cpu:               1.5 elap:               0.1
 (Enter /shared/centos7/gaussian/g16/l1110.exe)
 Forming Gx(P) for the SCF density, NAtomX=    12.
 Integral derivatives from FoFJK, PRISM(SPDF).
 Do as many integral derivatives as possible in FoFJK.
 G2DrvN: MDV=     671087640.
 G2DrvN: will do    13 centers at a time, making    1 passes.
 Calling FoFCou, ICntrl=  3107 FMM=F I1Cent=   0 AccDes= 0.00D+00.
 FoFJK:  IHMeth= 1 ICntrl=    3107 DoSepK=F KAlg= 0 I1Cent=           0 FoldK=F
 IRaf=         0 NMat=       1 IRICut=       1 DoRegI=T DoRafI=F ISym2E= 0 IDoP0=0 IntGTp=1.
 FoFCou: FMM=F IPFlag=           0 FMFlag=      100000 FMFlg1=           0
         NFxFlg=           0 DoJE=F BraDBF=F KetDBF=F FulRan=T
         wScrn=  0.000000 ICntrl=      3107 IOpCl=  1 I1Cent=           0 NGrid=           0
         NMat0=    1 NMatS0=      1 NMatT0=    0 NMatD0=    1 NMtDS0=    0 NMtDT0=    0
 Symmetry not used in FoFCou.
 End of G2Drv F.D. properties file   721 does not exist.
 End of G2Drv F.D. properties file   722 does not exist.
 End of G2Drv F.D. properties file   788 does not exist.
 Leave Link 1110 at Sat Jun 22 14:04:55 2019, MaxMem=   671088640 cpu:            1343.1 elap:              67.2
 (Enter /shared/centos7/gaussian/g16/l1002.exe)
 Minotr:  UHF open shell wavefunction.
          IDoAtm=111111111111
          Direct CPHF calculation.
          Differentiating once with respect to nuclear coordinates.
          Requested convergence is 1.0D-08 RMS, and 1.0D-07 maximum.
          Secondary convergence is 1.0D-12 RMS, and 1.0D-12 maximum.
          NewPWx=T KeepS1=F KeepF1=F KeepIn=T MapXYZ=F SortEE=F KeepMc=T.
         3577 words used for storage of precomputed grid.
 Two-electron integral symmetry not used.
          MDV=     671088640 using IRadAn=       1.
          Solving linear equations simultaneously, MaxMat=     380.
 FoF2E skips out because all densities are zero.
 CalDSu exits because no D1Ps are significant.
 FoFJK:  IHMeth= 1 ICntrl=       0 DoSepK=F KAlg= 0 I1Cent=           0 FoldK=F
 IRaf= 960000000 NMat=      36 IRICut=      90 DoRegI=T DoRafI=T ISym2E= 0 IDoP0=3 IntGTp=3.
 FoFCou: FMM=F IPFlag=           0 FMFlag=      100000 FMFlg1=           0
         NFxFlg=           0 DoJE=F BraDBF=F KetDBF=F FulRan=T
         wScrn=  0.000000 ICntrl=         0 IOpCl=  1 I1Cent=           0 NGrid=           0
         NMat0=   36 NMatS0=     36 NMatT0=    0 NMatD0=   36 NMtDS0=    0 NMtDT0=    0
 Symmetry not used in FoFCou.
 Raff kept on since  94.58% of shell-pairs survive, threshold=   0.20 IRatSp=95.
          There are    39 degrees of freedom in the 1st order CPHF.  IDoFFX=6 NUNeed=     0.
     33 vectors produced by pass  0 Test12= 2.50D-14 2.56D-09 XBig12= 1.27D-01 1.02D-01.
 AX will form    33 AO Fock derivatives at one time.
     33 vectors produced by pass  1 Test12= 2.50D-14 2.56D-09 XBig12= 1.46D-02 4.32D-02.
     33 vectors produced by pass  2 Test12= 2.50D-14 2.56D-09 XBig12= 7.83D-04 6.76D-03.
     33 vectors produced by pass  3 Test12= 2.50D-14 2.56D-09 XBig12= 1.40D-05 5.73D-04.
     33 vectors produced by pass  4 Test12= 2.50D-14 2.56D-09 XBig12= 1.63D-07 6.55D-05.
     33 vectors produced by pass  5 Test12= 2.50D-14 2.56D-09 XBig12= 1.87D-09 6.10D-06.
     28 vectors produced by pass  6 Test12= 2.50D-14 2.56D-09 XBig12= 1.99D-11 6.10D-07.
     14 vectors produced by pass  7 Test12= 2.50D-14 2.56D-09 XBig12= 2.06D-13 4.46D-08.
      3 vectors produced by pass  8 Test12= 2.50D-14 2.56D-09 XBig12= 1.77D-15 4.15D-09.
 InvSVY:  IOpt=1 It=  1 EMax= 1.11D-15
 Solved reduced A of dimension   243 with    33 vectors.
 End of Minotr F.D. properties file   721 does not exist.
 End of Minotr F.D. properties file   722 does not exist.
 End of Minotr F.D. properties file   788 does not exist.
 Leave Link 1002 at Sat Jun 22 14:06:48 2019, MaxMem=   671088640 cpu:            2253.7 elap:             112.8
 (Enter /shared/centos7/gaussian/g16/l601.exe)
 Copying SCF densities to generalized density rwf, IOpCl= 1 IROHF=0.

 **********************************************************************

            Population analysis using the SCF density.

 **********************************************************************

 Alpha  occ. eigenvalues --  -19.72503 -19.69525 -19.65315 -10.60398 -10.54029
 Alpha  occ. eigenvalues --   -1.32628  -1.17448  -0.96611  -0.86225  -0.73783
 Alpha  occ. eigenvalues --   -0.64139  -0.60378  -0.58229  -0.55848  -0.54675
 Alpha  occ. eigenvalues --   -0.52969  -0.47601  -0.45260  -0.41816  -0.38532
 Alpha  occ. eigenvalues --   -0.36758  -0.36335
 Alpha virt. eigenvalues --    0.05412   0.09306   0.09973   0.10700   0.13044
 Alpha virt. eigenvalues --    0.14516   0.18016   0.21066   0.22113   0.23925
 Alpha virt. eigenvalues --    0.28382   0.30717   0.32004   0.36632   0.38149
 Alpha virt. eigenvalues --    0.39841   0.42942   0.44382   0.45098   0.47303
 Alpha virt. eigenvalues --    0.49797   0.50966   0.51454   0.51842   0.53238
 Alpha virt. eigenvalues --    0.54313   0.57628   0.60245   0.63647   0.63906
 Alpha virt. eigenvalues --    0.67461   0.68556   0.71911   0.75246   0.77017
 Alpha virt. eigenvalues --    0.83729   0.85085   0.86717   0.90672   0.94500
 Alpha virt. eigenvalues --    0.94828   0.97601   0.98531   0.99842   1.04575
 Alpha virt. eigenvalues --    1.07178   1.07934   1.09770   1.10329   1.12159
 Alpha virt. eigenvalues --    1.14441   1.15481   1.19248   1.22891   1.23833
 Alpha virt. eigenvalues --    1.26592   1.30717   1.31763   1.32868   1.34995
 Alpha virt. eigenvalues --    1.36379   1.38911   1.38932   1.44908   1.51703
 Alpha virt. eigenvalues --    1.52693   1.54448   1.55938   1.57061   1.58102
 Alpha virt. eigenvalues --    1.60861   1.70751   1.86044   1.89521   1.92860
 Alpha virt. eigenvalues --    1.96328   2.02125   2.04859   2.08795   2.14545
 Alpha virt. eigenvalues --    2.17909   2.21474   2.24071   2.29302   2.31109
 Alpha virt. eigenvalues --    2.38388   2.42220   2.44891   2.48488   2.51523
 Alpha virt. eigenvalues --    2.54242   2.59246   2.68219   2.72215   2.76880
 Alpha virt. eigenvalues --    2.79344   2.81509   2.83273   2.86759   2.92084
 Alpha virt. eigenvalues --    2.92410   2.95170   2.98337   3.01411   3.02757
 Alpha virt. eigenvalues --    3.06860   3.07836   3.12687   3.13452   3.16414
 Alpha virt. eigenvalues --    3.21448   3.21757   3.23881   3.29377   3.31197
 Alpha virt. eigenvalues --    3.32966   3.34367   3.36086   3.40105   3.41694
 Alpha virt. eigenvalues --    3.46311   3.47236   3.50291   3.52824   3.54092
 Alpha virt. eigenvalues --    3.54685   3.56331   3.60318   3.63628   3.66695
 Alpha virt. eigenvalues --    3.67890   3.73885   3.75218   3.76263   3.77916
 Alpha virt. eigenvalues --    3.82322   3.83207   3.84605   3.85703   3.89417
 Alpha virt. eigenvalues --    3.91165   3.93887   3.95011   3.97500   3.99264
 Alpha virt. eigenvalues --    4.02710   4.04787   4.05162   4.07323   4.10772
 Alpha virt. eigenvalues --    4.11628   4.14492   4.17150   4.20031   4.24511
 Alpha virt. eigenvalues --    4.26140   4.30012   4.37765   4.40016   4.42035
 Alpha virt. eigenvalues --    4.47545   4.57912   4.63704   4.66085   4.70867
 Alpha virt. eigenvalues --    4.73011   4.78009   4.78845   4.79643   4.82708
 Alpha virt. eigenvalues --    4.88779   4.90693   4.92408   4.95535   4.97554
 Alpha virt. eigenvalues --    5.02049   5.04354   5.05607   5.09176   5.14231
 Alpha virt. eigenvalues --    5.18168   5.19748   5.25944   5.28029   5.32928
 Alpha virt. eigenvalues --    5.35459   5.36070   5.41839   5.48289   5.53868
 Alpha virt. eigenvalues --    5.65474   5.72233   5.73932   5.74617   5.83949
 Alpha virt. eigenvalues --    5.90827   6.02538   6.14955   6.19277   6.20737
 Alpha virt. eigenvalues --    6.25502   6.31217   6.33862   6.36010   6.36421
 Alpha virt. eigenvalues --    6.46371   6.53867   6.56178   6.58343   6.65812
 Alpha virt. eigenvalues --    6.74042   6.76647   6.83275   6.92048   7.03510
 Alpha virt. eigenvalues --    7.04499   7.08253   7.15893   7.27820   7.43052
 Alpha virt. eigenvalues --    7.61245   9.18236  11.33879  11.63062  12.15417
 Alpha virt. eigenvalues --   13.65154
  Beta  occ. eigenvalues --  -19.71677 -19.68076 -19.65322 -10.60398 -10.54028
  Beta  occ. eigenvalues --   -1.29252  -1.17443  -0.91748  -0.86217  -0.73762
  Beta  occ. eigenvalues --   -0.62469  -0.60296  -0.54872  -0.53582  -0.52735
  Beta  occ. eigenvalues --   -0.47955  -0.47281  -0.45136  -0.41758  -0.38228
  Beta  occ. eigenvalues --   -0.33929
  Beta virt. eigenvalues --   -0.05008   0.05442   0.09388   0.10008   0.10721
  Beta virt. eigenvalues --    0.13273   0.14526   0.18128   0.21508   0.22331
  Beta virt. eigenvalues --    0.24897   0.28398   0.30918   0.32019   0.36666
  Beta virt. eigenvalues --    0.38179   0.39976   0.43003   0.44439   0.45127
  Beta virt. eigenvalues --    0.47320   0.49737   0.51120   0.51461   0.51847
  Beta virt. eigenvalues --    0.53341   0.54461   0.57843   0.60426   0.64084
  Beta virt. eigenvalues --    0.64538   0.67599   0.69755   0.72624   0.76071
  Beta virt. eigenvalues --    0.77838   0.83853   0.85159   0.86834   0.90685
  Beta virt. eigenvalues --    0.94559   0.94962   0.97642   0.98566   0.99853
  Beta virt. eigenvalues --    1.04686   1.07254   1.08158   1.09859   1.10357
  Beta virt. eigenvalues --    1.12567   1.14469   1.15667   1.19423   1.23226
  Beta virt. eigenvalues --    1.23972   1.27032   1.30916   1.31795   1.34812
  Beta virt. eigenvalues --    1.35421   1.36540   1.39103   1.39231   1.45545
  Beta virt. eigenvalues --    1.52307   1.53932   1.54739   1.56418   1.57296
  Beta virt. eigenvalues --    1.59166   1.61553   1.70972   1.86473   1.90040
  Beta virt. eigenvalues --    1.93112   1.96527   2.02945   2.05059   2.08852
  Beta virt. eigenvalues --    2.15014   2.19246   2.21865   2.24183   2.29559
  Beta virt. eigenvalues --    2.31268   2.38547   2.42266   2.44942   2.48498
  Beta virt. eigenvalues --    2.51543   2.54293   2.59272   2.68329   2.72236
  Beta virt. eigenvalues --    2.76961   2.79350   2.81539   2.83294   2.86764
  Beta virt. eigenvalues --    2.92089   2.92430   2.95186   2.98348   3.01413
  Beta virt. eigenvalues --    3.02762   3.06863   3.07843   3.12703   3.13478
  Beta virt. eigenvalues --    3.16418   3.21502   3.22217   3.23992   3.29535
  Beta virt. eigenvalues --    3.31252   3.32983   3.34398   3.36158   3.40323
  Beta virt. eigenvalues --    3.41894   3.46736   3.47773   3.50333   3.53242
  Beta virt. eigenvalues --    3.54363   3.55053   3.56378   3.60715   3.65610
  Beta virt. eigenvalues --    3.67130   3.68455   3.74224   3.75429   3.76824
  Beta virt. eigenvalues --    3.81553   3.82754   3.83629   3.84694   3.86501
  Beta virt. eigenvalues --    3.89835   3.91243   3.94010   3.95178   3.97677
  Beta virt. eigenvalues --    3.99387   4.02956   4.04924   4.05783   4.07816
  Beta virt. eigenvalues --    4.11238   4.11895   4.14629   4.17209   4.20074
  Beta virt. eigenvalues --    4.24532   4.26133   4.30147   4.37771   4.40031
  Beta virt. eigenvalues --    4.42059   4.47625   4.58093   4.63703   4.66086
  Beta virt. eigenvalues --    4.70918   4.74740   4.78266   4.78882   4.80574
  Beta virt. eigenvalues --    4.82832   4.90223   4.90797   4.92759   4.95566
  Beta virt. eigenvalues --    4.97718   5.02224   5.04374   5.06538   5.09512
  Beta virt. eigenvalues --    5.17537   5.18333   5.21311   5.26015   5.28015
  Beta virt. eigenvalues --    5.33216   5.35555   5.36294   5.42121   5.48344
  Beta virt. eigenvalues --    5.53890   5.66892   5.72243   5.73959   5.74686
  Beta virt. eigenvalues --    5.83957   5.90895   6.03633   6.19393   6.21999
  Beta virt. eigenvalues --    6.26673   6.30290   6.34907   6.36595   6.39148
  Beta virt. eigenvalues --    6.41357   6.46578   6.54674   6.57204   6.60524
  Beta virt. eigenvalues --    6.65854   6.74197   6.76936   6.84123   6.92239
  Beta virt. eigenvalues --    7.03750   7.07393   7.08359   7.15939   7.27603
  Beta virt. eigenvalues --    7.43571   7.62214   9.20207  11.33877  11.63620
  Beta virt. eigenvalues --   12.15419  13.65148
          Condensed to atoms (all electrons):
               1          2          3          4          5          6
     1  O    7.909381  -0.033517  -0.003441   0.269608  -0.052199  -0.036884
     2  O   -0.033517   7.755682   0.077055   0.004603   0.001664   0.000483
     3  O   -0.003441   0.077055   8.135720  -0.005137  -0.004382  -0.000238
     4  C    0.269608   0.004603  -0.005137   4.773006   0.302573   0.408975
     5  C   -0.052199   0.001664  -0.004382   0.302573   5.038727  -0.045214
     6  H   -0.036884   0.000483  -0.000238   0.408975  -0.045214   0.599973
     7  H   -0.032434  -0.000132  -0.000069   0.428604  -0.053152  -0.050050
     8  H    0.003668   0.000174  -0.000115  -0.030595   0.390837   0.005899
     9  H    0.004741  -0.000344   0.000168  -0.031760   0.385222  -0.010421
    10  H    0.308126  -0.003482   0.021914  -0.037360  -0.001024   0.009486
    11  H    0.071654   0.313019  -0.038432  -0.002939  -0.001199  -0.002658
    12  H   -0.003484  -0.001991   0.014177  -0.044076   0.396772   0.002474
               7          8          9         10         11         12
     1  O   -0.032434   0.003668   0.004741   0.308126   0.071654  -0.003484
     2  O   -0.000132   0.000174  -0.000344  -0.003482   0.313019  -0.001991
     3  O   -0.000069  -0.000115   0.000168   0.021914  -0.038432   0.014177
     4  C    0.428604  -0.030595  -0.031760  -0.037360  -0.002939  -0.044076
     5  C   -0.053152   0.390837   0.385222  -0.001024  -0.001199   0.396772
     6  H   -0.050050   0.005899  -0.010421   0.009486  -0.002658   0.002474
     7  H    0.607624  -0.010595   0.006109  -0.012491   0.001801   0.003579
     8  H   -0.010595   0.589743  -0.031630   0.000389  -0.000131  -0.033738
     9  H    0.006109  -0.031630   0.591305  -0.000256   0.000120  -0.030901
    10  H   -0.012491   0.000389  -0.000256   0.463051  -0.012925   0.002922
    11  H    0.001801  -0.000131   0.000120  -0.012925   0.407279   0.002409
    12  H    0.003579  -0.033738  -0.030901   0.002922   0.002409   0.568846
          Atomic-Atomic Spin Densities.
               1          2          3          4          5          6
     1  O   -0.004276  -0.000138   0.000409   0.000729  -0.000373   0.000139
     2  O   -0.000138   0.452363  -0.147609  -0.000410   0.002460  -0.000043
     3  O    0.000409  -0.147609   0.863158   0.000766  -0.001972   0.000030
     4  C    0.000729  -0.000410   0.000766  -0.002790  -0.000113  -0.000179
     5  C   -0.000373   0.002460  -0.001972  -0.000113   0.002463   0.000040
     6  H    0.000139  -0.000043   0.000030  -0.000179   0.000040  -0.000159
     7  H   -0.000019   0.000001  -0.000004   0.000127  -0.000117  -0.000020
     8  H    0.000004   0.000037  -0.000149  -0.000101   0.001151  -0.000059
     9  H   -0.000017  -0.000016   0.000068  -0.000001  -0.001636   0.000113
    10  H    0.000223   0.000570  -0.003018   0.000566   0.000011   0.000134
    11  H    0.001582   0.000913  -0.000169  -0.000206   0.000193  -0.000071
    12  H    0.000058  -0.004366   0.001905   0.001814  -0.000095   0.000015
               7          8          9         10         11         12
     1  O   -0.000019   0.000004  -0.000017   0.000223   0.001582   0.000058
     2  O    0.000001   0.000037  -0.000016   0.000570   0.000913  -0.004366
     3  O   -0.000004  -0.000149   0.000068  -0.003018  -0.000169   0.001905
     4  C    0.000127  -0.000101  -0.000001   0.000566  -0.000206   0.001814
     5  C   -0.000117   0.001151  -0.001636   0.000011   0.000193  -0.000095
     6  H   -0.000020  -0.000059   0.000113   0.000134  -0.000071   0.000015
     7  H    0.000116   0.000109  -0.000036   0.000048   0.000024  -0.000185
     8  H    0.000109   0.000494  -0.000093   0.000129   0.000019  -0.001615
     9  H   -0.000036  -0.000093   0.000787  -0.000072  -0.000014   0.001168
    10  H    0.000048   0.000129  -0.000072  -0.000443   0.000188  -0.000081
    11  H    0.000024   0.000019  -0.000014   0.000188  -0.014144  -0.000029
    12  H   -0.000185  -0.001615   0.001168  -0.000081  -0.000029  -0.002999
 Mulliken charges and spin densities:
               1          2
     1  O   -0.405219  -0.001679
     2  O   -0.113214   0.303762
     3  O   -0.197221   0.713415
     4  C   -0.035504   0.000201
     5  C   -0.358626   0.002011
     6  H    0.118174  -0.000061
     7  H    0.111206   0.000043
     8  H    0.116095  -0.000075
     9  H    0.117646   0.000250
    10  H    0.261650  -0.001746
    11  H    0.262002  -0.011713
    12  H    0.123010  -0.004409
 Sum of Mulliken charges =  -0.00000   1.00000
 Mulliken charges and spin densities with hydrogens summed into heavy atoms:
               1          2
     1  O   -0.143570  -0.003424
     2  O    0.148789   0.292049
     3  O   -0.197221   0.713415
     4  C    0.193876   0.000183
     5  C   -0.001874  -0.002223
 APT charges:
               1
     1  O   -0.429867
     2  O   -0.054231
     3  O   -0.173484
     4  C   -0.761909
     5  C   -0.892218
     6  H    0.389000
     7  H    0.444735
     8  H    0.427806
     9  H    0.365355
    10  H    0.363453
    11  H    0.180845
    12  H    0.140516
 Sum of APT charges =  -0.00000
 APT charges with hydrogens summed into heavy atoms:
               1
     1  O   -0.066414
     2  O    0.126614
     3  O   -0.173484
     4  C    0.071826
     5  C    0.041458
 Electronic spatial extent (au):  <R**2>=            597.9203
 Charge=             -0.0000 electrons
 Dipole moment (field-independent basis, Debye):
    X=             -3.1952    Y=             -0.1343    Z=             -0.1571  Tot=              3.2019
 Quadrupole moment (field-independent basis, Debye-Ang):
   XX=            -34.1622   YY=            -32.8300   ZZ=            -29.2400
   XY=             -1.9800   XZ=              0.1942   YZ=              0.4356
 Traceless Quadrupole moment (field-independent basis, Debye-Ang):
   XX=             -2.0848   YY=             -0.7526   ZZ=              2.8374
   XY=             -1.9800   XZ=              0.1942   YZ=              0.4356
 Octapole moment (field-independent basis, Debye-Ang**2):
  XXX=             -5.1468  YYY=             -0.0032  ZZZ=             -1.5928  XYY=              4.6744
  XXY=             -5.0850  XXZ=             -0.0887  XZZ=              0.9104  YZZ=             -3.3513
  YYZ=              0.3020  XYZ=              0.7251
 Hexadecapole moment (field-independent basis, Debye-Ang**3):
 XXXX=           -525.0132 YYYY=           -163.8952 ZZZZ=            -66.5862 XXXY=              0.2327
 XXXZ=              2.7583 YYYX=              2.0622 YYYZ=             -0.5084 ZZZX=             -1.0551
 ZZZY=              1.1568 XXYY=           -109.0101 XXZZ=            -95.7383 YYZZ=            -35.3035
 XXYZ=              0.9030 YYXZ=              0.3618 ZZXY=              0.2830
 N-N= 1.867651412072D+02 E-N=-1.092506214551D+03  KE= 3.043793347223D+02
  Exact polarizability:   0.000   0.000   0.000   0.000   0.000   0.000
 Approx polarizability:  45.070   1.253  41.822  -1.386  -4.068  50.619
                          Isotropic Fermi Contact Couplings
        Atom                 a.u.       MegaHertz       Gauss      10(-4) cm-1
     1  O(17)             -0.00312       1.89144       0.67491       0.63092
     2  O(17)              0.05894     -35.72762     -12.74850     -11.91745
     3  O(17)              0.16275     -98.66012     -35.20439     -32.90947
     4  C(13)             -0.00005      -0.05893      -0.02103      -0.01966
     5  C(13)              0.00036       0.40662       0.14509       0.13563
     6  H(1)              -0.00001      -0.06384      -0.02278      -0.02130
     7  H(1)              -0.00000      -0.00547      -0.00195      -0.00182
     8  H(1)              -0.00002      -0.07081      -0.02527      -0.02362
     9  H(1)               0.00002       0.08300       0.02962       0.02769
    10  H(1)               0.00015       0.68420       0.24414       0.22823
    11  H(1)              -0.00650     -29.07438     -10.37446      -9.69817
    12  H(1)              -0.00000      -0.00711      -0.00254      -0.00237
 --------------------------------------------------------
       Center         ----  Spin Dipole Couplings  ----
                      3XX-RR        3YY-RR        3ZZ-RR
 --------------------------------------------------------
     1   Atom        0.007555      0.001092     -0.008646
     2   Atom       -0.227669      0.912642     -0.684973
     3   Atom       -0.459909      1.644798     -1.184889
     4   Atom        0.004692     -0.002285     -0.002407
     5   Atom        0.006589     -0.003382     -0.003207
     6   Atom        0.002917     -0.001458     -0.001459
     7   Atom        0.002644     -0.001222     -0.001422
     8   Atom        0.003083     -0.001459     -0.001624
     9   Atom        0.003033     -0.001576     -0.001457
    10   Atom        0.009060     -0.002804     -0.006255
    11   Atom        0.041531     -0.001429     -0.040102
    12   Atom        0.011395     -0.004797     -0.006599
 --------------------------------------------------------
                        XY            XZ            YZ
 --------------------------------------------------------
     1   Atom        0.003972     -0.001770      0.000183
     2   Atom       -0.974906     -0.341657      0.594707
     3   Atom       -1.822310     -0.598494      1.080544
     4   Atom        0.001842     -0.000303     -0.000169
     5   Atom       -0.001563     -0.001219     -0.000133
     6   Atom        0.001341     -0.001264     -0.000415
     7   Atom        0.001108      0.000430      0.000091
     8   Atom       -0.001368      0.000565     -0.000218
     9   Atom       -0.001665     -0.001530      0.000504
    10   Atom        0.009153      0.006346      0.003450
    11   Atom        0.044415     -0.013585     -0.003850
    12   Atom       -0.006854     -0.001068     -0.000212
 --------------------------------------------------------


 ---------------------------------------------------------------------------------
              Anisotropic Spin Dipole Couplings in Principal Axis System
 ---------------------------------------------------------------------------------

       Atom             a.u.   MegaHertz   Gauss  10(-4) cm-1        Axes

              Baa    -0.0089     0.642     0.229     0.214  0.1228 -0.0671  0.9902
     1 O(17)  Bbb    -0.0007     0.050     0.018     0.017 -0.4115  0.9045  0.1123
              Bcc     0.0096    -0.693    -0.247    -0.231  0.9031  0.4212 -0.0835
 
              Baa    -0.8846    64.009    22.840    21.351  0.1429 -0.2402  0.9601
     2 O(17)  Bbb    -0.7869    56.940    20.317    18.993  0.8668  0.4987 -0.0042
              Bcc     1.6715  -120.948   -43.157   -40.344 -0.4778  0.8328  0.2795
 
              Baa    -1.5548   112.506    40.145    37.528 -0.2558 -0.4369  0.8623
     3 O(17)  Bbb    -1.5016   108.655    38.771    36.243  0.8398  0.3414  0.4221
              Bcc     3.0564  -221.161   -78.916   -73.771 -0.4789  0.8322  0.2796
 
              Baa    -0.0028    -0.371    -0.132    -0.124 -0.2221  0.9412  0.2546
     4 C(13)  Bbb    -0.0024    -0.322    -0.115    -0.107  0.1029 -0.2370  0.9660
              Bcc     0.0052     0.693     0.247     0.231  0.9696  0.2407 -0.0442
 
              Baa    -0.0038    -0.513    -0.183    -0.171  0.1865  0.8191  0.5425
     5 C(13)  Bbb    -0.0031    -0.421    -0.150    -0.141  0.0152 -0.5545  0.8321
              Bcc     0.0070     0.935     0.334     0.312  0.9823 -0.1469 -0.1158
 
              Baa    -0.0019    -1.001    -0.357    -0.334 -0.0727  0.8093  0.5829
     6 H(1)   Bbb    -0.0018    -0.942    -0.336    -0.314  0.3587 -0.5242  0.7724
              Bcc     0.0036     1.943     0.693     0.648  0.9306  0.2652 -0.2522
 
              Baa    -0.0015    -0.814    -0.290    -0.271 -0.2741  0.8964  0.3484
     7 H(1)   Bbb    -0.0015    -0.778    -0.277    -0.259  0.0001 -0.3622  0.9321
              Bcc     0.0030     1.592     0.568     0.531  0.9617  0.2555  0.0992
 
              Baa    -0.0019    -0.992    -0.354    -0.331  0.2165  0.9187  0.3304
     8 H(1)   Bbb    -0.0017    -0.893    -0.319    -0.298 -0.1949 -0.2910  0.9367
              Bcc     0.0035     1.885     0.673     0.629  0.9566 -0.2672  0.1160
 
              Baa    -0.0021    -1.129    -0.403    -0.376  0.2962  0.9542 -0.0421
     9 H(1)   Bbb    -0.0019    -1.029    -0.367    -0.343  0.2806 -0.0448  0.9588
              Bcc     0.0040     2.157     0.770     0.720  0.9130 -0.2958 -0.2810
 
              Baa    -0.0086    -4.569    -1.630    -1.524 -0.2674 -0.1456  0.9525
    10 H(1)   Bbb    -0.0078    -4.151    -1.481    -1.385 -0.4776  0.8786  0.0002
              Bcc     0.0163     8.720     3.112     2.909  0.8369  0.4549  0.3045
 
              Baa    -0.0429   -22.884    -8.165    -7.633  0.2450 -0.1738  0.9538
    11 H(1)   Bbb    -0.0282   -15.021    -5.360    -5.011 -0.4781  0.8342  0.2748
              Bcc     0.0710    37.905    13.525    12.644  0.8434  0.5234 -0.1212
 
              Baa    -0.0076    -4.072    -1.453    -1.358  0.3188  0.8079  0.4956
    12 H(1)   Bbb    -0.0063    -3.371    -1.203    -1.124 -0.1333 -0.4795  0.8674
              Bcc     0.0139     7.442     2.656     2.483  0.9384 -0.3426 -0.0452
 

 ---------------------------------------------------------------------------------

 No NMR shielding tensors so no spin-rotation constants.
 Leave Link  601 at Sat Jun 22 14:06:48 2019, MaxMem=   671088640 cpu:               6.3 elap:               0.4
 (Enter /shared/centos7/gaussian/g16/l701.exe)
 ... and contract with generalized density number  0.
 Compute integral second derivatives.
 Leave Link  701 at Sat Jun 22 14:06:49 2019, MaxMem=   671088640 cpu:               4.6 elap:               0.3
 (Enter /shared/centos7/gaussian/g16/l702.exe)
 L702 exits ... SP integral derivatives will be done elsewhere.
 Leave Link  702 at Sat Jun 22 14:06:49 2019, MaxMem=   671088640 cpu:               0.5 elap:               0.0
 (Enter /shared/centos7/gaussian/g16/l703.exe)
 Integral derivatives from FoFJK, PRISM(SPDF).
 Compute integral second derivatives, UseDBF=F ICtDFT=           0.
 Calling FoFJK, ICntrl=    100127 FMM=F ISym2X=0 I1Cent= 0 IOpClX= 1 NMat=1 NMatS=1 NMatT=0.
 FoFJK:  IHMeth= 1 ICntrl=  100127 DoSepK=F KAlg= 0 I1Cent=           0 FoldK=F
 IRaf=         0 NMat=       1 IRICut=       1 DoRegI=T DoRafI=F ISym2E= 0 IDoP0=0 IntGTp=1.
 FoFCou: FMM=F IPFlag=           0 FMFlag=      100000 FMFlg1=         800
         NFxFlg=           0 DoJE=F BraDBF=F KetDBF=F FulRan=T
         wScrn=  0.000000 ICntrl=    100127 IOpCl=  1 I1Cent=           0 NGrid=           0
         NMat0=    1 NMatS0=      1 NMatT0=    0 NMatD0=    1 NMtDS0=    0 NMtDT0=    0
 Symmetry not used in FoFCou.
 Leave Link  703 at Sat Jun 22 14:08:11 2019, MaxMem=   671088640 cpu:            1641.0 elap:              82.1
 (Enter /shared/centos7/gaussian/g16/l716.exe)
 Dipole        =-1.25710779D+00-5.28201660D-02-6.18163552D-02
 Polarizability= 0.00000000D+00 0.00000000D+00 0.00000000D+00
                 0.00000000D+00 0.00000000D+00 0.00000000D+00
 -------------------------------------------------------------------
 Center     Atomic                   Forces (Hartrees/Bohr)
 Number     Number              X              Y              Z
 -------------------------------------------------------------------
      1        8          -0.000009604    0.000009077   -0.000002272
      2        8           0.000005461    0.000026356   -0.000003706
      3        8           0.000001358   -0.000021676    0.000013193
      4        6          -0.000014504   -0.000003971    0.000008279
      5        6           0.000006460   -0.000009075   -0.000012277
      6        1           0.000004149   -0.000006996   -0.000000667
      7        1           0.000000908    0.000003805   -0.000003466
      8        1          -0.000003922   -0.000003288    0.000001443
      9        1          -0.000001053   -0.000003804    0.000002061
     10        1          -0.000001850   -0.000006486    0.000001990
     11        1          -0.000000523    0.000009103   -0.000015905
     12        1           0.000013122    0.000006954    0.000011328
 -------------------------------------------------------------------
 Cartesian Forces:  Max     0.000026356 RMS     0.000009143
 Z-matrix is all fixed cartesians, so copy forces.
 Force constants in Cartesian coordinates: 
                1             2             3             4             5 
      1  0.366688D+00
      2 -0.554797D-01  0.203126D+00
      3 -0.186654D+00 -0.139780D+00  0.492128D+00
      4 -0.287344D-01 -0.106070D-01 -0.127237D-01  0.375216D+00
      5 -0.156362D-01 -0.405104D-03 -0.384632D-02  0.204671D+00  0.179393D+00
      6 -0.768021D-02 -0.207186D-02 -0.336715D-03  0.168475D-01 -0.144779D+00
      7 -0.145218D-02 -0.160700D-02  0.195748D-02 -0.441363D-01 -0.234436D-01
      8 -0.116645D-02  0.898681D-03  0.591294D-03 -0.401071D-01 -0.744027D-01
      9 -0.374881D-02 -0.136784D-02  0.138298D-02  0.492448D-01  0.169660D+00
     10 -0.193835D+00  0.521842D-01  0.415714D-01  0.300277D-02  0.856148D-03
     11  0.723810D-01 -0.999045D-01 -0.121220D-01 -0.454670D-02 -0.278120D-02
     12  0.854560D-02  0.103947D-01 -0.945110D-01 -0.394888D-02 -0.315220D-02
     13 -0.626186D-02  0.365969D-01  0.243344D-02 -0.519835D-04 -0.351065D-03
     14  0.835290D-02 -0.224778D-01 -0.869842D-03  0.436636D-03  0.328366D-04
     15  0.364476D-02 -0.719459D-02  0.375814D-02 -0.315386D-03  0.314158D-03
     16 -0.206997D-01 -0.550073D-02  0.373757D-01 -0.255735D-03 -0.340661D-04
     17  0.105334D-01  0.500170D-02 -0.183248D-01  0.122695D-03 -0.188002D-04
     18  0.762886D-02 -0.718436D-03 -0.453474D-02  0.239438D-03  0.829804D-04
     19 -0.391345D-01  0.253252D-02 -0.167679D-01 -0.177448D-02 -0.119770D-02
     20  0.207802D-01  0.428958D-02  0.112542D-01  0.102465D-02  0.696515D-03
     21  0.879443D-02  0.246028D-02  0.117698D-01  0.450463D-03  0.340927D-03
     22  0.253489D-03  0.173311D-02  0.101305D-02 -0.185069D-03  0.328410D-04
     23  0.142421D-02 -0.513837D-02 -0.765609D-03  0.805483D-04  0.201660D-03
     24  0.458417D-03 -0.132057D-02 -0.180206D-03  0.174664D-04 -0.113347D-04
     25 -0.310257D-03  0.206702D-02 -0.802310D-03  0.263892D-03 -0.182515D-03
     26  0.247083D-02 -0.491384D-02  0.903718D-04  0.386599D-03  0.154538D-03
     27 -0.421709D-03  0.492832D-03  0.129609D-03  0.145037D-04  0.498103D-04
     28 -0.895327D-01 -0.279827D-01  0.125875D+00 -0.243562D-02 -0.224934D-02
     29 -0.481353D-01 -0.769136D-01  0.164939D+00 -0.973431D-03 -0.441849D-03
     30  0.157605D+00  0.138778D+00 -0.404811D+00  0.363748D-03  0.932660D-03
     31  0.110951D-01  0.314706D-02  0.745137D-02 -0.299759D+00 -0.162701D+00
     32  0.503584D-02 -0.875752D-02 -0.163322D-02 -0.151052D+00 -0.102279D+00
     33  0.121324D-01  0.112292D-02 -0.587488D-02 -0.505130D-01 -0.196001D-01
     34  0.192400D-02  0.291625D-02 -0.729847D-03 -0.115024D-02  0.235646D-03
     35 -0.560807D-03  0.519491D-02  0.467303D-03  0.564107D-03 -0.149597D-03
     36 -0.304947D-03 -0.795799D-03  0.108030D-02  0.322955D-03  0.828350D-05
                6             7             8             9            10 
      6  0.467909D+00
      7  0.172465D-02  0.458210D-01
      8  0.142151D+00  0.412122D-01  0.865445D-01
      9 -0.421775D+00 -0.522977D-01 -0.180898D+00  0.449396D+00
     10 -0.121103D-03  0.101681D-02  0.126880D-02  0.486092D-03  0.522373D+00
     11 -0.659210D-03 -0.680674D-03 -0.143364D-02 -0.917686D-03  0.487389D-01
     12 -0.120050D-02  0.380314D-03  0.502831D-03 -0.254914D-03  0.137892D-01
     13  0.143710D-03  0.325419D-03 -0.282310D-05 -0.107175D-04 -0.788629D-01
     14 -0.262489D-03  0.633273D-03 -0.659276D-04  0.277417D-03 -0.169888D-01
     15  0.800338D-03  0.274490D-03  0.594768D-04 -0.605881D-03 -0.162284D-02
     16 -0.128999D-03 -0.317507D-03 -0.315444D-03 -0.158196D-03 -0.658439D-01
     17 -0.105980D-03  0.797457D-04  0.237335D-03  0.916834D-04 -0.276584D-01
     18  0.119363D-03  0.124369D-03  0.125944D-03 -0.542900D-04  0.637690D-01
     19 -0.238092D-03 -0.456433D-04  0.132636D-04 -0.258372D-03 -0.158145D+00
     20  0.212216D-03 -0.708002D-04  0.754284D-04  0.123015D-03 -0.601619D-01
     21  0.834693D-04 -0.951963D-05 -0.244818D-04  0.510097D-04 -0.118089D+00
     22  0.414872D-03 -0.850692D-04  0.177126D-03 -0.228052D-03  0.103818D-02
     23  0.105802D-03  0.361545D-04  0.109382D-03 -0.304309D-04  0.182267D-01
     24  0.237633D-04  0.117608D-05 -0.178103D-04  0.895414D-05  0.217326D-02
     25 -0.478043D-03 -0.455501D-03  0.504078D-04  0.291444D-03 -0.133837D-02
     26  0.183067D-04 -0.932106D-04  0.889885D-04  0.863545D-04  0.593454D-02
     27  0.117710D-03  0.110575D-03 -0.193304D-04 -0.495180D-04 -0.138592D-02
     28  0.104279D-02  0.629719D-03  0.225748D-02  0.371938D-03 -0.174215D-01
     29  0.152104D-02  0.135013D-02 -0.509818D-03 -0.607185D-03  0.103360D-01
     30 -0.148226D-02  0.207250D-02  0.376455D-03  0.764992D-03  0.244349D-02
     31 -0.118063D-01 -0.477017D-03 -0.339971D-02  0.670663D-02 -0.927506D-02
     32  0.375387D-02 -0.171721D-01 -0.117635D-01  0.136015D-01 -0.114769D-02
     33 -0.428943D-01  0.458309D-01  0.373559D-01 -0.298036D-01 -0.302041D-02
     34  0.279234D-03 -0.823678D-03  0.122411D-04 -0.399046D-03 -0.270930D-02
     35  0.115929D-03 -0.244086D-03  0.221223D-03 -0.187940D-04 -0.315885D-01
     36 -0.136443D-02 -0.169165D-03 -0.203466D-03  0.939411D-03  0.719355D-05
               11            12            13            14            15 
     11  0.477752D+00
     12 -0.239256D-01  0.634445D+00
     13 -0.211726D-01 -0.216294D-04  0.573657D+00
     14 -0.193922D+00  0.267719D-02 -0.168800D-01  0.480527D+00
     15  0.491661D-02 -0.814859D-01  0.130820D-02  0.342847D-02  0.574067D+00
     16 -0.237535D-01  0.514563D-01  0.144035D-02 -0.117175D-02  0.456716D-02
     17 -0.787998D-01  0.861198D-01 -0.731616D-02 -0.127372D-01  0.257552D-01
     18  0.809455D-01 -0.277094D+00 -0.180162D-02 -0.139752D-02  0.262451D-02
     19 -0.591199D-01 -0.110656D+00  0.810811D-03 -0.103670D-02 -0.466805D-02
     20 -0.777002D-01 -0.590015D-01 -0.190260D-01 -0.124836D-01 -0.194788D-01
     21 -0.567010D-01 -0.178318D+00  0.203219D-02  0.221371D-02  0.323255D-02
     22 -0.485804D-02  0.389539D-02 -0.144121D+00  0.665046D-01 -0.114845D+00
     23 -0.108004D-01  0.230340D-01  0.641340D-01 -0.895587D-01  0.746693D-01
     24 -0.107132D-02  0.378588D-03 -0.115069D+00  0.761250D-01 -0.181031D+00
     25 -0.359689D-02 -0.292987D-02 -0.609561D-01  0.270881D-01  0.579238D-01
     26 -0.105979D-01 -0.282904D-01  0.257634D-01 -0.884686D-01 -0.951990D-01
     27  0.274260D-02  0.289064D-02  0.582533D-01 -0.970105D-01 -0.264789D+00
     28 -0.952195D-02  0.353511D-01  0.141134D-02 -0.106941D-03 -0.624058D-03
     29  0.567310D-02 -0.201482D-01  0.124903D-02  0.147505D-02 -0.799026D-03
     30  0.309904D-02 -0.602870D-02 -0.139051D-02  0.537412D-04  0.350058D-03
     31  0.582234D-02  0.418064D-02  0.663896D-03 -0.134056D-03 -0.971964D-04
     32  0.431460D-02  0.470144D-02  0.917883D-03  0.204172D-03 -0.821823D-03
     33  0.396094D-02  0.424823D-02  0.102805D-03 -0.220189D-03 -0.277466D-03
     34  0.307945D-03 -0.416685D-04 -0.288055D+00 -0.666973D-01  0.544546D-01
     35 -0.117998D-01  0.708789D-02 -0.639126D-01 -0.625253D-01  0.143500D-01
     36 -0.267880D-03 -0.306859D-02  0.540198D-01  0.149850D-01 -0.566435D-01
               16            17            18            19            20 
     16  0.814876D-01
     17  0.200286D-01  0.884732D-01
     18 -0.739387D-01 -0.844293D-01  0.294112D+00
     19  0.838369D-02  0.257434D-02  0.477108D-02  0.185468D+00
     20  0.689139D-02  0.438295D-02  0.734660D-02  0.548114D-01  0.872318D-01
     21 -0.200768D-01 -0.996245D-02 -0.197546D-01  0.125996D+00  0.612216D-01
     22 -0.179471D-03 -0.123589D-02  0.506089D-03  0.134789D-02  0.555272D-04
     23 -0.550005D-03 -0.362829D-02  0.855470D-05  0.508368D-03  0.152278D-02
     24 -0.103846D-03  0.548659D-03  0.868004D-03  0.519298D-03 -0.208165D-03
     25  0.109602D-02  0.233411D-03 -0.123482D-03 -0.194564D-03 -0.127097D-02
     26  0.743061D-03  0.156327D-02  0.220344D-04 -0.803781D-03 -0.354652D-02
     27 -0.296829D-03  0.308895D-03  0.173515D-02  0.695103D-03 -0.751615D-04
     28 -0.511528D-02  0.295144D-02 -0.159277D-03  0.407539D-03 -0.113462D-02
     29  0.364699D-02 -0.131708D-02 -0.133999D-02 -0.199247D-03  0.251240D-04
     30  0.930092D-03 -0.979589D-03  0.220059D-02 -0.147988D-02  0.352526D-03
     31  0.312510D-03 -0.415720D-03 -0.381190D-03  0.261675D-02 -0.136597D-02
     32  0.152588D-04  0.000000D+00 -0.209970D-03  0.163522D-02 -0.104737D-02
     33  0.759939D-03 -0.342343D-05 -0.401642D-03  0.168310D-02 -0.829237D-03
     34 -0.308574D-03  0.102441D-03 -0.634615D-03  0.259495D-03 -0.532923D-03
     35  0.000000D+00 -0.315737D-02 -0.436393D-03  0.282218D-03 -0.344653D-02
     36 -0.385808D-03  0.981345D-03  0.179783D-03  0.403680D-03 -0.917376D-03
               21            22            23            24            25 
     21  0.180266D+00
     22  0.295111D-03  0.152698D+00
     23 -0.418302D-03 -0.699753D-01  0.995483D-01
     24  0.140556D-02  0.126107D+00 -0.815363D-01  0.192118D+00
     25  0.233405D-04  0.578006D-02 -0.885390D-02 -0.188310D-01  0.614711D-01
     26  0.194835D-03 -0.439632D-02  0.501659D-02  0.115277D-01 -0.277852D-01
     27  0.798879D-03  0.663104D-02 -0.828222D-02 -0.194771D-01 -0.640192D-01
     28  0.578207D-04 -0.178029D-03 -0.635011D-04 -0.581351D-05  0.177885D-03
     29  0.727929D-03  0.889250D-04  0.136397D-03 -0.168530D-04 -0.736028D-03
     30  0.113220D-02 -0.627382D-03  0.432543D-03 -0.806522D-04 -0.329345D-03
     31 -0.940443D-04  0.252143D-03 -0.515333D-03  0.546036D-04  0.358077D-05
     32 -0.387952D-03 -0.450995D-03 -0.445353D-03  0.302170D-04  0.296535D-03
     33 -0.314785D-03  0.419455D-04 -0.278282D-03 -0.101364D-03  0.394400D-03
     34  0.619866D-03 -0.166213D-01 -0.445191D-02  0.467880D-02 -0.553775D-02
     35  0.334901D-03  0.123244D-01  0.303596D-02 -0.404921D-02  0.126899D-01
     36 -0.351882D-03 -0.232032D-01 -0.693905D-02  0.606711D-02  0.288803D-01
               26            27            28            29            30 
     26  0.983213D-01
     27  0.103270D+00  0.284087D+00
     28 -0.424317D-03 -0.185101D-03  0.106836D+00
     29 -0.318597D-03  0.298775D-03  0.336961D-01  0.718838D-01
     30  0.542269D-03  0.604035D-04 -0.156826D+00 -0.142607D+00  0.414457D+00
     31 -0.602946D-03 -0.112232D-03  0.448931D-02  0.537067D-03 -0.294049D-02
     32 -0.342701D-03 -0.105575D-03  0.238001D-02  0.178753D-02  0.226493D-03
     33 -0.401341D-03 -0.155250D-03 -0.466984D-02 -0.150486D-02 -0.686582D-02
     34 -0.119267D-02  0.716439D-03  0.731208D-03 -0.860214D-03  0.178186D-03
     35  0.304340D-02 -0.166978D-02  0.198311D-03 -0.148000D-02 -0.120703D-02
     36  0.813913D-02 -0.534896D-02 -0.229294D-03 -0.462750D-03  0.302978D-03
               31            32            33            34            35 
     31  0.289179D+00
     32  0.159447D+00  0.119062D+00
     33 -0.259197D-02 -0.200262D-01  0.821820D-01
     34  0.898738D-03  0.952673D-04 -0.150303D-03  0.311392D+00
     35  0.181597D-03 -0.733238D-03  0.423854D-03  0.700652D-01  0.717964D-01
     36 -0.369816D-03  0.871190D-03  0.258782D-03 -0.589717D-01 -0.153987D-01
               36 
     36  0.579490D-01
 Leave Link  716 at Sat Jun 22 14:08:11 2019, MaxMem=   671088640 cpu:               0.5 elap:               0.0
 (Enter /shared/centos7/gaussian/g16/l123.exe)
 IRC-IRC-IRC-IRC-IRC-IRC-IRC-IRC-IRC-IRC-IRC-IRC-IRC-IRC-IRC-IRC-IRC-IRC
          ******** Start new reaction path calculation ********
 Current Structure is TS -> form Hessian eigenvectors.
                            Diagonalizing Hessian.
 Supplied step size of   0.1000 bohr.
    Integration on MW PES will use step size of   0.1041 sqrt(amu)*bohr.
 Point Number:   0          Path Number:   1
 Calculating another point on the path.
 Point Number  1 in FORWARD path direction.
 Using LQA Reaction Path Following.
 IRC-IRC-IRC-IRC-IRC-IRC-IRC-IRC-IRC-IRC-IRC-IRC-IRC-IRC-IRC-IRC-IRC-IRC
 Leave Link  123 at Sat Jun 22 14:08:11 2019, MaxMem=   671088640 cpu:               0.3 elap:               0.0
 (Enter /shared/centos7/gaussian/g16/l202.exe)
                          Input orientation:                          
 ---------------------------------------------------------------------
 Center     Atomic      Atomic             Coordinates (Angstroms)
 Number     Number       Type             X           Y           Z
 ---------------------------------------------------------------------
      1          8           0       -0.516365   -1.070459   -0.187776
      2          8           0        1.749703   -0.018771    0.646974
      3          8           0        1.849905    0.447241   -0.570325
      4          6           0       -1.754343   -0.408318    0.081145
      5          6           0       -1.631906    1.118553    0.053189
      6          1           0       -2.053619   -0.763151    1.064462
      7          1           0       -2.502603   -0.756894   -0.632233
      8          1           0       -2.255735    1.560049   -0.722063
      9          1           0       -1.915732    1.563565    1.005199
     10          1           0       -0.176202   -0.761347   -1.035854
     11          1           0        0.888919   -0.514826    0.632435
     12          1           0       -0.598838    1.404780   -0.147778
 ---------------------------------------------------------------------
                    Distance matrix (angstroms):
                    1          2          3          4          5
     1  O    0.000000
     2  O    2.633994   0.000000
     3  O    2.837074   1.307297   0.000000
     4  C    1.429454   3.570749   3.761249   0.000000
     5  C    2.468657   3.616818   3.600338   1.532027   0.000000
     6  H    2.006411   3.897904   4.401712   1.087375   2.177458
     7  H    2.059370   4.501478   4.516425   1.091012   2.178353
     8  H    3.198506   4.517795   4.256482   2.184262   1.088622
     9  H    3.212398   4.008432   4.231840   2.183631   1.088539
    10  H    0.964623   2.663164   2.404685   1.965412   2.615170
    11  H    1.719389   0.993595   1.815405   2.702239   3.059086
    12  H    2.476936   2.858982   2.663037   2.162157   1.090662
                    6          7          8          9         10
     6  H    0.000000
     7  H    1.755107   0.000000
     8  H    2.937649   2.331789   0.000000
     9  H    2.331552   2.900023   1.760412   0.000000
    10  H    2.817095   2.361159   3.132379   3.549236   0.000000
    11  H    2.984433   3.627727   4.003575   3.510659   1.994603
    12  H    2.878513   2.920934   1.760460   1.757493   2.378950
                   11         12
    11  H    0.000000
    12  H    2.550890   0.000000
 Symmetry turned off by external request.
 Stoichiometry    C2H7O3(2)
 Framework group  C1[X(C2H7O3)]
 Deg. of freedom    30
 Full point group                 C1      NOp   1
 Rotational constants (GHZ):           7.8313579           2.3537837           2.0635162
 Leave Link  202 at Sat Jun 22 14:08:11 2019, MaxMem=   671088640 cpu:               1.2 elap:               0.1
 (Enter /shared/centos7/gaussian/g16/l301.exe)
 Standard basis: CC-pVTZ (5D, 7F)
 Ernie: Thresh=  0.10000D-02 Tol=  0.10000D-05 Strict=F.
 Ernie:  15 primitive shells out of 186 were deleted.
   248 basis functions,   379 primitive gaussians,   280 cartesian basis functions
    22 alpha electrons       21 beta electrons
       nuclear repulsion energy       186.7590569123 Hartrees.
 IExCor= 4336 DFT=T Ex+Corr=M062X ExCW=0 ScaHFX=  0.540000
 ScaDFX=  1.000000  1.000000  1.000000  1.000000 ScalE2=  1.000000  1.000000
 IRadAn=      5 IRanWt=     -1 IRanGd=            0 ICorTp=0 IEmpDi=  4
 NAtoms=   12 NActive=   12 NUniq=   12 SFac= 1.00D+00 NAtFMM=   60 NAOKFM=F Big=F
 Integral buffers will be    131072 words long.
 Raffenetti 2 integral format.
 Two-electron integral symmetry is turned off.
 Leave Link  301 at Sat Jun 22 14:08:11 2019, MaxMem=   671088640 cpu:               1.4 elap:               0.1
 (Enter /shared/centos7/gaussian/g16/l302.exe)
 NPDir=0 NMtPBC=     1 NCelOv=     1 NCel=       1 NClECP=     1 NCelD=      1
         NCelK=      1 NCelE2=     1 NClLst=     1 CellRange=     0.0.
 One-electron integrals computed using PRISM.
 NBasis=   248 RedAO= T EigKep=  8.04D-04  NBF=   248
 NBsUse=   248 1.00D-06 EigRej= -1.00D+00 NBFU=   248
 Precomputing XC quadrature grid using
 IXCGrd= 4 IRadAn=           5 IRanWt=          -1 IRanGd=           0 AccXCQ= 0.00D+00.
 Generated NRdTot=       0 NPtTot=           0 NUsed=           0 NTot=          32
 NSgBfM=   280   280   280   280   280 MxSgAt=    12 MxSgA2=    12.
 Leave Link  302 at Sat Jun 22 14:08:11 2019, MaxMem=   671088640 cpu:               4.5 elap:               0.2
 (Enter /shared/centos7/gaussian/g16/l303.exe)
 DipDrv:  MaxL=1.
 Leave Link  303 at Sat Jun 22 14:08:11 2019, MaxMem=   671088640 cpu:               0.6 elap:               0.1
 (Enter /shared/centos7/gaussian/g16/l401.exe)
 Initial guess from the checkpoint file:  "/scratch/harms.n/gauss_scrdir/Gau-17271.chk"
 B after Tr=    -0.187451    0.037693    0.003567
         Rot=    1.000000    0.000157    0.000094   -0.000011 Ang=   0.02 deg.
 Guess basis will be translated and rotated to current coordinates.
 JPrj=2 DoOrth=T DoCkMO=T.
 Initial guess <Sx>= 0.0000 <Sy>= 0.0000 <Sz>= 0.5000 <S**2>= 0.7550 S= 0.5025
 Generating alternative initial guess.
 ExpMin= 1.03D-01 ExpMax= 1.53D+04 ExpMxC= 5.22D+02 IAcc=2 IRadAn=         4 AccDes= 0.00D+00
 Harris functional with IExCor= 1009 and IRadAn=       4 diagonalized for initial guess.
 HarFok:  IExCor= 1009 AccDes= 0.00D+00 IRadAn=         4 IDoV= 1 UseB2=F ITyADJ=14
 ICtDFT=  3500011 ScaDFX=  1.000000  1.000000  1.000000  1.000000
 FoFCou: FMM=F IPFlag=           0 FMFlag=      100000 FMFlg1=           0
         NFxFlg=           0 DoJE=T BraDBF=F KetDBF=T FulRan=T
         wScrn=  0.000000 ICntrl=       500 IOpCl=  0 I1Cent=   200000004 NGrid=           0
         NMat0=    1 NMatS0=      1 NMatT0=    0 NMatD0=    1 NMtDS0=    0 NMtDT0=    0
 Symmetry not used in FoFCou.
 Harris En= -305.810228782700    
 Leave Link  401 at Sat Jun 22 14:08:12 2019, MaxMem=   671088640 cpu:              11.9 elap:               0.6
 (Enter /shared/centos7/gaussian/g16/l502.exe)
 Two-electron integral symmetry not used.
 UHF open shell SCF:
 Using DIIS extrapolation, IDIIS=  1040.
 NGot=   671088640 LenX=   670924296 LenY=   670845455
 Requested convergence on RMS density matrix=1.00D-08 within 128 cycles.
 Requested convergence on MAX density matrix=1.00D-06.
 Requested convergence on             energy=1.00D-06.
 No special actions if energy rises.
 Fock matrices will be formed incrementally for  20 cycles.
 Integral accuracy reduced to 1.0D-05 until final iterations.

 Cycle   1  Pass 0  IDiag  1:
 FoFJK:  IHMeth= 1 ICntrl=       0 DoSepK=F KAlg= 0 I1Cent=           0 FoldK=F
 IRaf= 970000000 NMat=       1 IRICut=       1 DoRegI=T DoRafI=F ISym2E= 0 IDoP0=0 IntGTp=1.
 FoFCou: FMM=F IPFlag=           0 FMFlag=      100000 FMFlg1=           0
         NFxFlg=           0 DoJE=F BraDBF=F KetDBF=F FulRan=T
         wScrn=  0.000000 ICntrl=         0 IOpCl=  1 I1Cent=           0 NGrid=           0
         NMat0=    1 NMatS0=      1 NMatT0=    0 NMatD0=    1 NMtDS0=    0 NMtDT0=    0
 Symmetry not used in FoFCou.
 E= -305.944732692016    
 DIIS: error= 1.18D-03 at cycle   1 NSaved=   1.
[...]
 Alpha virt. eigenvalues --    3.05346   3.08703   3.12349   3.13478   3.15957
 Alpha virt. eigenvalues --    3.21535   3.22136   3.24795   3.28654   3.29795
 Alpha virt. eigenvalues --    3.32844   3.34657   3.35974   3.40168   3.42932
 Alpha virt. eigenvalues --    3.47390   3.48364   3.50101   3.50772   3.53383
 Alpha virt. eigenvalues --    3.55090   3.57646   3.60255   3.64010   3.67620
 Alpha virt. eigenvalues --    3.68616   3.72603   3.75212   3.75733   3.77791
 Alpha virt. eigenvalues --    3.80468   3.82763   3.84340   3.86815   3.90744
 Alpha virt. eigenvalues --    3.92283   3.94911   3.96780   3.97793   4.00047
 Alpha virt. eigenvalues --    4.02742   4.04087   4.05785   4.07956   4.09276
 Alpha virt. eigenvalues --    4.12618   4.13548   4.16492   4.19357   4.23471
 Alpha virt. eigenvalues --    4.25404   4.30941   4.36509   4.38375   4.43219
 Alpha virt. eigenvalues --    4.49289   4.58250   4.64201   4.66473   4.70854
 Alpha virt. eigenvalues --    4.73016   4.78002   4.80042   4.80466   4.82142
 Alpha virt. eigenvalues --    4.87327   4.88820   4.93728   4.94335   4.98672
 Alpha virt. eigenvalues --    5.01448   5.05123   5.06356   5.09351   5.14214
 Alpha virt. eigenvalues --    5.19105   5.19492   5.24608   5.28968   5.32137
 Alpha virt. eigenvalues --    5.33563   5.35391   5.42065   5.46639   5.53632
 Alpha virt. eigenvalues --    5.65571   5.72452   5.73582   5.75647   5.85690
 Alpha virt. eigenvalues --    5.90313   6.02612   6.15089   6.19052   6.20607
 Alpha virt. eigenvalues --    6.25176   6.31201   6.33905   6.36206   6.36292
 Alpha virt. eigenvalues --    6.46559   6.54206   6.56150   6.58399   6.65623
 Alpha virt. eigenvalues --    6.74332   6.76020   6.83166   6.91950   7.03152
 Alpha virt. eigenvalues --    7.04493   7.08431   7.16226   7.27399   7.43106
 Alpha virt. eigenvalues --    7.60811   9.17056  11.44084  11.63669  12.17162
 Alpha virt. eigenvalues --   13.49244
  Beta  occ. eigenvalues --  -19.71665 -19.68080 -19.65322 -10.60401 -10.54079
  Beta  occ. eigenvalues --   -1.29254  -1.17464  -0.91757  -0.86286  -0.73700
  Beta  occ. eigenvalues --   -0.62411  -0.60457  -0.54940  -0.53524  -0.52528
  Beta  occ. eigenvalues --   -0.47956  -0.47435  -0.45218  -0.41794  -0.38253
  Beta  occ. eigenvalues --   -0.33909
  Beta virt. eigenvalues --   -0.05014   0.05484   0.09344   0.10182   0.10680
  Beta virt. eigenvalues --    0.12906   0.15391   0.17427   0.21265   0.22135
  Beta virt. eigenvalues --    0.24697   0.28015   0.31077   0.31522   0.36690
  Beta virt. eigenvalues --    0.37518   0.40670   0.42679   0.44863   0.45617
  Beta virt. eigenvalues --    0.47199   0.50141   0.50886   0.51434   0.52104
  Beta virt. eigenvalues --    0.53602   0.55169   0.58153   0.59949   0.62640
  Beta virt. eigenvalues --    0.64959   0.68151   0.68790   0.72792   0.76403
  Beta virt. eigenvalues --    0.79175   0.82795   0.84778   0.85999   0.91110
  Beta virt. eigenvalues --    0.92572   0.94980   0.95560   0.98170   0.99640
  Beta virt. eigenvalues --    1.05408   1.07034   1.08339   1.10191   1.11368
  Beta virt. eigenvalues --    1.12598   1.15721   1.16966   1.22048   1.23002
  Beta virt. eigenvalues --    1.23968   1.26429   1.30704   1.31815   1.34561
  Beta virt. eigenvalues --    1.35391   1.36797   1.38154   1.40554   1.44861
  Beta virt. eigenvalues --    1.51759   1.53259   1.54080   1.56195   1.57189
  Beta virt. eigenvalues --    1.58210   1.62117   1.71133   1.87445   1.89458
  Beta virt. eigenvalues --    1.93640   1.97382   2.02985   2.05987   2.08816
  Beta virt. eigenvalues --    2.15659   2.19501   2.21979   2.24455   2.29488
  Beta virt. eigenvalues --    2.31461   2.38500   2.40418   2.45657   2.46116
  Beta virt. eigenvalues --    2.52050   2.54889   2.59151   2.68428   2.72547
  Beta virt. eigenvalues --    2.76329   2.80882   2.81837   2.83585   2.87217
  Beta virt. eigenvalues --    2.90583   2.93401   2.96128   2.99164   3.00066
  Beta virt. eigenvalues --    3.01285   3.05351   3.08719   3.12355   3.13502
  Beta virt. eigenvalues --    3.15970   3.21757   3.22390   3.24916   3.28723
  Beta virt. eigenvalues --    3.29912   3.32857   3.34748   3.35989   3.40185
  Beta virt. eigenvalues --    3.43541   3.47693   3.49480   3.50195   3.50803
  Beta virt. eigenvalues --    3.53507   3.55504   3.57699   3.60917   3.65599
  Beta virt. eigenvalues --    3.68210   3.69136   3.73266   3.75459   3.75936
  Beta virt. eigenvalues --    3.80389   3.82342   3.83367   3.84408   3.87054
  Beta virt. eigenvalues --    3.90963   3.92341   3.95115   3.97009   3.97919
  Beta virt. eigenvalues --    4.00136   4.03017   4.04145   4.06448   4.08328
  Beta virt. eigenvalues --    4.09944   4.12886   4.13692   4.16559   4.19400
  Beta virt. eigenvalues --    4.23496   4.25414   4.31059   4.36514   4.38398
  Beta virt. eigenvalues --    4.43250   4.49382   4.58444   4.64210   4.66471
  Beta virt. eigenvalues --    4.70875   4.74750   4.78492   4.80120   4.80954
  Beta virt. eigenvalues --    4.82429   4.87467   4.90341   4.93978   4.94381
  Beta virt. eigenvalues --    4.98905   5.01491   5.05224   5.07591   5.09383
  Beta virt. eigenvalues --    5.17456   5.19214   5.21178   5.24671   5.28974
  Beta virt. eigenvalues --    5.32279   5.33951   5.35403   5.42394   5.46706
  Beta virt. eigenvalues --    5.53650   5.66988   5.72466   5.73642   5.75670
  Beta virt. eigenvalues --    5.85709   5.90399   6.03711   6.19540   6.21728
  Beta virt. eigenvalues --    6.26899   6.29886   6.34716   6.36590   6.38998
  Beta virt. eigenvalues --    6.41488   6.46772   6.55085   6.57119   6.60581
  Beta virt. eigenvalues --    6.65663   6.74474   6.76292   6.84024   6.92146
  Beta virt. eigenvalues --    7.03487   7.07259   7.08568   7.16318   7.27195
  Beta virt. eigenvalues --    7.43635   7.61772   9.19023  11.44084  11.64237
  Beta virt. eigenvalues --   12.17165  13.49246
          Condensed to atoms (all electrons):
               1          2          3          4          5          6
     1  O    7.907217  -0.033205  -0.004121   0.269333  -0.050649  -0.035335
     2  O   -0.033205   7.752089   0.079007   0.004024   0.003609   0.000313
     3  O   -0.004121   0.079007   8.134743  -0.004985  -0.003996  -0.000177
     4  C    0.269333   0.004024  -0.004985   4.766272   0.306162   0.407070
     5  C   -0.050649   0.003609  -0.003996   0.306162   5.036546  -0.045201
     6  H   -0.035335   0.000313  -0.000177   0.407070  -0.045201   0.599426
     7  H   -0.033587  -0.000126  -0.000099   0.431701  -0.055093  -0.049349
     8  H    0.004694   0.000130   0.000067  -0.030103   0.385775   0.004025
     9  H    0.003700  -0.000173  -0.000110  -0.031919   0.390673  -0.010631
    10  H    0.308269  -0.003685   0.022730  -0.036244  -0.002072   0.009340
    11  H    0.072226   0.313452  -0.037903  -0.003224  -0.000937  -0.002365
    12  H   -0.004231  -0.003576   0.013339  -0.043543   0.395560   0.005060
               7          8          9         10         11         12
     1  O   -0.033587   0.004694   0.003700   0.308269   0.072226  -0.004231
     2  O   -0.000126   0.000130  -0.000173  -0.003685   0.313452  -0.003576
     3  O   -0.000099   0.000067  -0.000110   0.022730  -0.037903   0.013339
     4  C    0.431701  -0.030103  -0.031919  -0.036244  -0.003224  -0.043543
     5  C   -0.055093   0.385775   0.390673  -0.002072  -0.000937   0.395560
     6  H   -0.049349   0.004025  -0.010631   0.009340  -0.002365   0.005060
     7  H    0.608809  -0.008237   0.007031  -0.013623   0.001832   0.000333
     8  H   -0.008237   0.587653  -0.029235  -0.000079  -0.000041  -0.029009
     9  H    0.007031  -0.029235   0.582307  -0.000555   0.000489  -0.035965
    10  H   -0.013623  -0.000079  -0.000555   0.462419  -0.013195   0.005815
    11  H    0.001832  -0.000041   0.000489  -0.013195   0.407882   0.000891
    12  H    0.000333  -0.029009  -0.035965   0.005815   0.000891   0.574492
          Atomic-Atomic Spin Densities.
               1          2          3          4          5          6
     1  O   -0.004240  -0.000153   0.000436   0.000913  -0.000540   0.000084
     2  O   -0.000153   0.452308  -0.147772  -0.000208   0.001338  -0.000060
     3  O    0.000436  -0.147772   0.861764   0.000983  -0.003009   0.000032
     4  C    0.000913  -0.000208   0.000983  -0.002592  -0.000480  -0.000032
     5  C   -0.000540   0.001338  -0.003009  -0.000480   0.004828  -0.000070
     6  H    0.000084  -0.000060   0.000032  -0.000032  -0.000070  -0.000084
     7  H    0.000010   0.000004  -0.000002  -0.000151   0.000076  -0.000076
     8  H   -0.000001  -0.000004  -0.000102   0.000293   0.001404  -0.000083
     9  H   -0.000007   0.000326  -0.000088  -0.000443   0.000209   0.000073
    10  H    0.000153   0.000504  -0.003020   0.000151   0.000643   0.000110
    11  H    0.001564   0.000784  -0.000050  -0.000188   0.000172  -0.000058
    12  H    0.000120  -0.003078   0.002982   0.002517  -0.003460   0.000038
               7          8          9         10         11         12
     1  O    0.000010  -0.000001  -0.000007   0.000153   0.001564   0.000120
     2  O    0.000004  -0.000004   0.000326   0.000504   0.000784  -0.003078
     3  O   -0.000002  -0.000102  -0.000088  -0.003020  -0.000050   0.002982
     4  C   -0.000151   0.000293  -0.000443   0.000151  -0.000188   0.002517
     5  C    0.000076   0.001404   0.000209   0.000643   0.000172  -0.003460
     6  H   -0.000076  -0.000083   0.000073   0.000110  -0.000058   0.000038
     7  H    0.000178   0.000046   0.000021   0.000089   0.000018  -0.000198
     8  H    0.000046  -0.000757   0.000441   0.000089   0.000018  -0.001315
     9  H    0.000021   0.000441  -0.000927  -0.000038   0.000003   0.000792
    10  H    0.000089   0.000089  -0.000038  -0.000186   0.000220  -0.000443
    11  H    0.000018   0.000018   0.000003   0.000220  -0.014049  -0.000123
    12  H   -0.000198  -0.001315   0.000792  -0.000443  -0.000123  -0.001056
 Mulliken charges and spin densities:
               1          2
     1  O   -0.404311  -0.001660
     2  O   -0.111859   0.303990
     3  O   -0.198495   0.712153
     4  C   -0.034543   0.000763
     5  C   -0.360377   0.001111
     6  H    0.117826  -0.000127
     7  H    0.110407   0.000016
     8  H    0.114361   0.000030
     9  H    0.124387   0.000362
    10  H    0.260878  -0.001728
    11  H    0.260893  -0.011688
    12  H    0.120834  -0.003223
 Sum of Mulliken charges =  -0.00000   1.00000
 Mulliken charges and spin densities with hydrogens summed into heavy atoms:
               1          2
     1  O   -0.143434  -0.003389
     2  O    0.149034   0.292302
     3  O   -0.198495   0.712153
     4  C    0.193690   0.000653
     5  C   -0.000795  -0.001719
 APT charges:
               1
     1  O   -0.423015
     2  O   -0.064335
     3  O   -0.174743
     4  C   -0.781302
     5  C   -0.889184
     6  H    0.401702
     7  H    0.446172
     8  H    0.468074
     9  H    0.325873
    10  H    0.356534
    11  H    0.190088
    12  H    0.144135
 Sum of APT charges =  -0.00000
 APT charges with hydrogens summed into heavy atoms:
               1
     1  O   -0.066481
     2  O    0.125753
     3  O   -0.174743
     4  C    0.066572
     5  C    0.048898
 Electronic spatial extent (au):  <R**2>=            598.5522
 Charge=             -0.0000 electrons
 Dipole moment (field-independent basis, Debye):
    X=             -3.1928    Y=             -0.1290    Z=             -0.1842  Tot=              3.2007
 Quadrupole moment (field-independent basis, Debye-Ang):
   XX=            -33.4618   YY=            -32.8174   ZZ=            -29.3099
   XY=             -2.0437   XZ=              0.2492   YZ=              0.4680
 Traceless Quadrupole moment (field-independent basis, Debye-Ang):
   XX=             -1.5988   YY=             -0.9544   ZZ=              2.5531
   XY=             -2.0437   XZ=              0.2492   YZ=              0.4680
 Octapole moment (field-independent basis, Debye-Ang**2):
  XXX=              4.3317  YYY=             -1.9507  ZZZ=             -1.2232  XYY=              7.8144
  XXY=             -5.2363  XXZ=             -0.3204  XZZ=              4.2586  YZZ=             -3.9664
  YYZ=              0.1443  XYZ=              0.7903
 Hexadecapole moment (field-independent basis, Debye-Ang**3):
 XXXX=           -522.5757 YYYY=           -163.4289 ZZZZ=            -66.5859 XXXY=              0.3562
 XXXZ=              2.5504 YYYX=              2.1869 YYYZ=             -0.7720 ZZZX=             -2.0673
 ZZZY=              1.2415 XXYY=           -110.0707 XXZZ=            -97.4386 YYZZ=            -35.4503
 XXYZ=             -0.1316 YYXZ=              0.1781 ZZXY=              1.4248
 N-N= 1.868297628826D+02 E-N=-1.092631088737D+03  KE= 3.043776697796D+02
  Exact polarizability:   0.000   0.000   0.000   0.000   0.000   0.000
 Approx polarizability:  45.287   1.268  41.770  -1.293  -4.009  50.694
                          Isotropic Fermi Contact Couplings
        Atom                 a.u.       MegaHertz       Gauss      10(-4) cm-1
     1  O(17)             -0.00314       1.90619       0.68018       0.63584
     2  O(17)              0.05905     -35.79428     -12.77229     -11.93969
     3  O(17)              0.16292     -98.75942     -35.23982     -32.94260
     4  C(13)             -0.00007      -0.07515      -0.02682      -0.02507
     5  C(13)              0.00047       0.52840       0.18855       0.17625
     6  H(1)              -0.00001      -0.05417      -0.01933      -0.01807
     7  H(1)              -0.00002      -0.06952      -0.02481      -0.02319
     8  H(1)              -0.00001      -0.04701      -0.01677      -0.01568
     9  H(1)               0.00000       0.01714       0.00612       0.00572
    10  H(1)               0.00016       0.71970       0.25681       0.24007
    11  H(1)              -0.00652     -29.14539     -10.39980      -9.72186
    12  H(1)              -0.00000      -0.00004      -0.00001      -0.00001
 --------------------------------------------------------
       Center         ----  Spin Dipole Couplings  ----
                      3XX-RR        3YY-RR        3ZZ-RR
 --------------------------------------------------------
     1   Atom        0.007805      0.001030     -0.008835
     2   Atom       -0.246683      0.937660     -0.690976
     3   Atom       -0.488355      1.684045     -1.195690
     4   Atom        0.004662     -0.002263     -0.002399
     5   Atom        0.006454     -0.003580     -0.002874
     6   Atom        0.002833     -0.001392     -0.001441
     7   Atom        0.002690     -0.001250     -0.001441
     8   Atom        0.002844     -0.001327     -0.001517
     9   Atom        0.003506     -0.001893     -0.001614
    10   Atom        0.009213     -0.002692     -0.006521
    11   Atom        0.042005     -0.002071     -0.039934
    12   Atom        0.010721     -0.004592     -0.006129
 --------------------------------------------------------
                        XY            XZ            YZ
 --------------------------------------------------------
     1   Atom        0.003958     -0.001580     -0.000007
     2   Atom       -0.966420     -0.332514      0.590610
     3   Atom       -1.806309     -0.579702      1.069471
     4   Atom        0.001831     -0.000269     -0.000162
     5   Atom       -0.001519     -0.001719     -0.000233
     6   Atom        0.001300     -0.001141     -0.000373
     7   Atom        0.001120      0.000515      0.000119
     8   Atom       -0.001266      0.000285     -0.000153
     9   Atom       -0.002036     -0.001998      0.000667
    10   Atom        0.009546      0.006343      0.003488
    11   Atom        0.044022     -0.014698     -0.004369
    12   Atom       -0.005991      0.000472     -0.000696
 --------------------------------------------------------


 ---------------------------------------------------------------------------------
              Anisotropic Spin Dipole Couplings in Principal Axis System
 ---------------------------------------------------------------------------------

       Atom             a.u.   MegaHertz   Gauss  10(-4) cm-1        Axes

              Baa    -0.0090     0.651     0.232     0.217  0.1029 -0.0399  0.9939
     1 O(17)  Bbb    -0.0007     0.054     0.019     0.018 -0.4070  0.9100  0.0786
              Bcc     0.0097    -0.705    -0.251    -0.235  0.9076  0.4126 -0.0774
 
              Baa    -0.8853    64.060    22.858    21.368  0.1477 -0.2331  0.9612
     2 O(17)  Bbb    -0.7879    57.012    20.343    19.017  0.8703  0.4923 -0.0144
              Bcc     1.6732  -121.073   -43.202   -40.385 -0.4699  0.8386  0.2756
 
              Baa    -1.5539   112.437    40.120    37.505 -0.2536 -0.4280  0.8675
     3 O(17)  Bbb    -1.4998   108.528    38.726    36.201  0.8443  0.3398  0.4145
              Bcc     3.0537  -220.965   -78.846   -73.706 -0.4721  0.8375  0.2752
 
              Baa    -0.0027    -0.368    -0.131    -0.123 -0.2221  0.9376  0.2674
     4 C(13)  Bbb    -0.0024    -0.320    -0.114    -0.107  0.1018 -0.2504  0.9628
              Bcc     0.0051     0.688     0.246     0.230  0.9697  0.2410 -0.0398
 
              Baa    -0.0041    -0.544    -0.194    -0.182  0.2003  0.8643  0.4614
     5 C(13)  Bbb    -0.0029    -0.390    -0.139    -0.130  0.0815 -0.4840  0.8713
              Bcc     0.0070     0.934     0.333     0.312  0.9763 -0.1370 -0.1674
 
              Baa    -0.0018    -0.958    -0.342    -0.320 -0.0834  0.8081  0.5830
     6 H(1)   Bbb    -0.0017    -0.905    -0.323    -0.302  0.3465 -0.5251  0.7773
              Bcc     0.0035     1.863     0.665     0.622  0.9343  0.2668 -0.2362
 
              Baa    -0.0016    -0.828    -0.295    -0.276 -0.2780  0.9044  0.3238
     7 H(1)   Bbb    -0.0015    -0.799    -0.285    -0.266 -0.0237 -0.3434  0.9389
              Bcc     0.0030     1.627     0.580     0.543  0.9603  0.2534  0.1169
 
              Baa    -0.0017    -0.912    -0.326    -0.304  0.2257  0.8971  0.3798
     8 H(1)   Bbb    -0.0015    -0.805    -0.287    -0.269 -0.1621 -0.3498  0.9227
              Bcc     0.0032     1.718     0.613     0.573  0.9606 -0.2698  0.0665
 
              Baa    -0.0026    -1.374    -0.490    -0.458  0.3193  0.9476  0.0063
     9 H(1)   Bbb    -0.0023    -1.226    -0.437    -0.409  0.2908 -0.1043  0.9511
              Bcc     0.0049     2.599     0.928     0.867  0.9019 -0.3019 -0.3089
 
              Baa    -0.0088    -4.681    -1.670    -1.561 -0.2756 -0.1149  0.9544
    10 H(1)   Bbb    -0.0080    -4.262    -1.521    -1.422 -0.4761  0.8788 -0.0316
              Bcc     0.0168     8.943     3.191     2.983  0.8351  0.4631  0.2969
 
              Baa    -0.0431   -22.970    -8.196    -7.662  0.2524 -0.1695  0.9527
    11 H(1)   Bbb    -0.0281   -15.004    -5.354    -5.005 -0.4695  0.8394  0.2738
              Bcc     0.0712    37.974    13.550    12.667  0.8461  0.5164 -0.1322
 
              Baa    -0.0070    -3.718    -1.327    -1.240  0.2604  0.8101  0.5252
    12 H(1)   Bbb    -0.0058    -3.117    -1.112    -1.040 -0.2004 -0.4868  0.8502
              Bcc     0.0128     6.835     2.439     2.280  0.9445 -0.3266  0.0356
 

 ---------------------------------------------------------------------------------

 No NMR shielding tensors so no spin-rotation constants.
 Leave Link  601 at Sat Jun 22 15:48:13 2019, MaxMem=   671088640 cpu:               6.3 elap:               0.4
 (Enter /shared/centos7/gaussian/g16/l9999.exe)

 This type of calculation cannot be archived.


 EDUCATION IS NOT TRAINING BUT RATHER THE PROCESS THAT EQUIPS YOU TO
 ENTERTAIN YOURSELF, A FRIEND, OR AN IDEA.  -- WALLACE STERLING
 Job cpu time:       1 days 10 hours 57 minutes 59.6 seconds.
 Elapsed time:       0 days  1 hours 45 minutes  9.7 seconds.
 File lengths (MBytes):  RWF=   1360 Int=      0 D2E=      0 Chk=     32 Scr=     32
 Normal termination of Gaussian 16 at Sat Jun 22 15:48:13 2019.
