 Entering Gaussian System, Link 0=g16
 Initial command:
 /shared/centos7/gaussian/g16/l1.exe "/scratch/harms.n/gauss_scrdir/Gau-23316.inp" -scrdir="/scratch/harms.n/gauss_scrdir/"
 Entering Link 1 = /shared/centos7/gaussian/g16/l1.exe PID=     23317.
  
 Copyright (c) 1988,1990,1992,1993,1995,1998,2003,2009,2016,
            Gaussian, Inc.  All Rights Reserved.
  
 This is part of the Gaussian(R) 16 program.  It is based on
 the Gaussian(R) 09 system (copyright 2009, Gaussian, Inc.),
 the Gaussian(R) 03 system (copyright 2003, Gaussian, Inc.),
 the Gaussian(R) 98 system (copyright 1998, Gaussian, Inc.),
 the Gaussian(R) 94 system (copyright 1995, Gaussian, Inc.),
 the Gaussian 92(TM) system (copyright 1992, Gaussian, Inc.),
 the Gaussian 90(TM) system (copyright 1990, Gaussian, Inc.),
 the Gaussian 88(TM) system (copyright 1988, Gaussian, Inc.),
 the Gaussian 86(TM) system (copyright 1986, Carnegie Mellon
 University), and the Gaussian 82(TM) system (copyright 1983,
 Carnegie Mellon University). Gaussian is a federally registered
 trademark of Gaussian, Inc.
  
 This software contains proprietary and confidential information,
 including trade secrets, belonging to Gaussian, Inc.
  
 This software is provided under written license and may be
 used, copied, transmitted, or stored only in accord with that
 written license.
  
 The following legend is applicable only to US Government
 contracts under FAR:
  
                    RESTRICTED RIGHTS LEGEND
  
 Use, reproduction and disclosure by the US Government is
 subject to restrictions as set forth in subparagraphs (a)
 and (c) of the Commercial Computer Software - Restricted
 Rights clause in FAR 52.227-19.
  
 Gaussian, Inc.
 340 Quinnipiac St., Bldg. 40, Wallingford CT 06492
  
  
 ---------------------------------------------------------------
 Warning -- This program may not be used in any manner that
 competes with the business of Gaussian, Inc. or will provide
 assistance to any competitor of Gaussian, Inc.  The licensee
 of this program is prohibited from giving any competitor of
 Gaussian, Inc. access to this program.  By using this program,
 the user acknowledges that Gaussian, Inc. is engaged in the
 business of creating and licensing software in the field of
 computational chemistry and represents and warrants to the
 licensee that it is not a competitor of Gaussian, Inc. and that
 it will not use this program in any manner prohibited above.
 ---------------------------------------------------------------
  

 Cite this work as:
 Gaussian 16, Revision A.03,
 M. J. Frisch, G. W. Trucks, H. B. Schlegel, G. E. Scuseria, 
 M. A. Robb, J. R. Cheeseman, G. Scalmani, V. Barone, 
 G. A. Petersson, H. Nakatsuji, X. Li, M. Caricato, A. V. Marenich, 
 J. Bloino, B. G. Janesko, R. Gomperts, B. Mennucci, H. P. Hratchian, 
 J. V. Ortiz, A. F. Izmaylov, J. L. Sonnenberg, D. Williams-Young, 
 F. Ding, F. Lipparini, F. Egidi, J. Goings, B. Peng, A. Petrone, 
 T. Henderson, D. Ranasinghe, V. G. Zakrzewski, J. Gao, N. Rega, 
 G. Zheng, W. Liang, M. Hada, M. Ehara, K. Toyota, R. Fukuda, 
 J. Hasegawa, M. Ishida, T. Nakajima, Y. Honda, O. Kitao, H. Nakai, 
 T. Vreven, K. Throssell, J. A. Montgomery, Jr., J. E. Peralta, 
 F. Ogliaro, M. J. Bearpark, J. J. Heyd, E. N. Brothers, K. N. Kudin, 
 V. N. Staroverov, T. A. Keith, R. Kobayashi, J. Normand, 
 K. Raghavachari, A. P. Rendell, J. C. Burant, S. S. Iyengar, 
 J. Tomasi, M. Cossi, J. M. Millam, M. Klene, C. Adamo, R. Cammi, 
 J. W. Ochterski, R. L. Martin, K. Morokuma, O. Farkas, 
 J. B. Foresman, and D. J. Fox, Gaussian, Inc., Wallingford CT, 2016.
 
 ******************************************
 Gaussian 16:  EM64L-G16RevA.03 25-Dec-2016
                22-May-2019 
 ******************************************
 %nprocshared=20
 Will use up to   20 processors via shared memory.
 %mem=5GB
 ----------------------------------------------------------------------
 #p m062x/cc-pVTZ opt=(calcfc,maxcycles=900) freq IOP(7/33=1,2/16=3) sc
 f=(maxcycle=900)
 ----------------------------------------------------------------------
 1/6=900,10=4,18=20,19=15,26=3,38=1/1,3;
 2/9=110,12=2,16=3,17=6,18=5,40=1/2;
 3/5=16,6=1,11=2,25=1,30=1,71=2,74=-55,140=1/1,2,3;
 4//1;
 5/5=2,7=900,38=5/2;
 8/6=4,10=90,11=11/1;
 11/6=1,8=1,9=11,15=111,16=1/1,2,10;
 10/6=1,13=1/2;
 6/7=2,8=2,9=2,10=2,28=1/1;
 7/10=1,18=20,25=1,33=1/1,2,3,16;
 1/6=900,10=4,18=20,19=15,26=3/3(2);
 2/9=110,16=3/2;
 99//99;
 2/9=110,16=3/2;
 3/5=16,6=1,11=2,25=1,30=1,71=1,74=-55/1,2,3;
 4/5=5,16=3,69=1/1;
 5/5=2,7=900,38=5/2;
 7/33=1/1,2,3,16;
 1/6=900,18=20,19=15,26=3/3(-5);
 2/9=110,16=3/2;
 6/7=2,8=2,9=2,10=2,19=2,28=1/1;
 99/9=1/99;
 Leave Link    1 at Wed May 22 18:33:38 2019, MaxMem=   671088640 cpu:              64.3 elap:               3.4
 (Enter /shared/centos7/gaussian/g16/l101.exe)
 ------------------------------
 Gaussian input prepared by ASE
 ------------------------------
 Symbolic Z-matrix:
 Charge =  0 Multiplicity = 2
 O                    -1.51817  -0.30726   0.67283 
 C                    -0.24942  -0.48648   0.09757 
 C                     0.18445   0.65028  -0.81796 
 H                     0.51457  -0.6156    0.88171 
 H                    -0.27449  -1.45071  -0.45369 
 H                    -0.40782   1.56959  -0.83754 
 H                     1.25502   0.77568  -1.00012 
 H                    -1.55881   0.62046   0.99764 
 
 ITRead=  0  0  0  0  0  0  0  0
 MicOpt= -1 -1 -1 -1 -1 -1 -1 -1
 NAtoms=      8 NQM=        8 NQMF=       0 NMMI=      0 NMMIF=      0
                NMic=       0 NMicF=      0.
                    Isotopes and Nuclear Properties:
 (Nuclear quadrupole moments (NQMom) in fm**2, nuclear magnetic moments (NMagM)
  in nuclear magnetons)

  Atom         1           2           3           4           5           6           7           8
 IAtWgt=          16          12          12           1           1           1           1           1
 AtmWgt=  15.9949146  12.0000000  12.0000000   1.0078250   1.0078250   1.0078250   1.0078250   1.0078250
 NucSpn=           0           0           0           1           1           1           1           1
 AtZEff=  -0.0000000  -0.0000000  -0.0000000  -0.0000000  -0.0000000  -0.0000000  -0.0000000  -0.0000000
 NQMom=    0.0000000   0.0000000   0.0000000   0.0000000   0.0000000   0.0000000   0.0000000   0.0000000
 NMagM=    0.0000000   0.0000000   0.0000000   2.7928460   2.7928460   2.7928460   2.7928460   2.7928460
 AtZNuc=   8.0000000   6.0000000   6.0000000   1.0000000   1.0000000   1.0000000   1.0000000   1.0000000
 Leave Link  101 at Wed May 22 18:33:39 2019, MaxMem=   671088640 cpu:               3.3 elap:               0.2
 (Enter /shared/centos7/gaussian/g16/l103.exe)

 GradGradGradGradGradGradGradGradGradGradGradGradGradGradGradGradGradGrad
 Berny optimization.
 Initialization pass.
                           ----------------------------
                           !    Initial Parameters    !
                           ! (Angstroms and Degrees)  !
 --------------------------                            --------------------------
 ! Name  Definition              Value          Derivative Info.                !
 --------------------------------------------------------------------------------
 ! R1    R(1,2)                  1.4046         calculate D2E/DX2 analytically  !
 ! R2    R(1,8)                  0.9838         calculate D2E/DX2 analytically  !
 ! R3    R(2,3)                  1.5227         calculate D2E/DX2 analytically  !
 ! R4    R(2,4)                  1.1024         calculate D2E/DX2 analytically  !
 ! R5    R(2,5)                  1.111          calculate D2E/DX2 analytically  !
 ! R6    R(3,6)                  1.0938         calculate D2E/DX2 analytically  !
 ! R7    R(3,7)                  1.0932         calculate D2E/DX2 analytically  !
 ! A1    A(2,1,8)              107.03           calculate D2E/DX2 analytically  !
 ! A2    A(1,2,3)              114.1031         calculate D2E/DX2 analytically  !
 ! A3    A(1,2,4)              110.4651         calculate D2E/DX2 analytically  !
 ! A4    A(1,2,5)              107.0733         calculate D2E/DX2 analytically  !
 ! A5    A(3,2,4)              108.5207         calculate D2E/DX2 analytically  !
 ! A6    A(3,2,5)              110.8566         calculate D2E/DX2 analytically  !
 ! A7    A(4,2,5)              105.4816         calculate D2E/DX2 analytically  !
 ! A8    A(2,3,6)              118.9432         calculate D2E/DX2 analytically  !
 ! A9    A(2,3,7)              117.7018         calculate D2E/DX2 analytically  !
 ! A10   A(6,3,7)              115.5249         calculate D2E/DX2 analytically  !
 ! D1    D(8,1,2,3)            -45.3543         calculate D2E/DX2 analytically  !
 ! D2    D(8,1,2,4)             77.2199         calculate D2E/DX2 analytically  !
 ! D3    D(8,1,2,5)           -168.4078         calculate D2E/DX2 analytically  !
 ! D4    D(1,2,3,6)              9.9889         calculate D2E/DX2 analytically  !
 ! D5    D(1,2,3,7)            157.8233         calculate D2E/DX2 analytically  !
 ! D6    D(4,2,3,6)           -113.6411         calculate D2E/DX2 analytically  !
 ! D7    D(4,2,3,7)             34.1933         calculate D2E/DX2 analytically  !
 ! D8    D(5,2,3,6)            130.9624         calculate D2E/DX2 analytically  !
 ! D9    D(5,2,3,7)            -81.2032         calculate D2E/DX2 analytically  !
 --------------------------------------------------------------------------------
 Trust Radius=3.00D-01 FncErr=1.00D-07 GrdErr=1.00D-06 EigMax=2.50D+02 EigMin=1.00D-04
 Number of steps in this run=    100 maximum allowed number of steps=    100.
 GradGradGradGradGradGradGradGradGradGradGradGradGradGradGradGradGradGrad

 Leave Link  103 at Wed May 22 18:33:39 2019, MaxMem=   671088640 cpu:               0.6 elap:               0.1
 (Enter /shared/centos7/gaussian/g16/l202.exe)
                          Input orientation:                          
 ---------------------------------------------------------------------
 Center     Atomic      Atomic             Coordinates (Angstroms)
 Number     Number       Type             X           Y           Z
 ---------------------------------------------------------------------
      1          8           0       -1.518167   -0.307258    0.672834
      2          6           0       -0.249423   -0.486482    0.097565
      3          6           0        0.184452    0.650280   -0.817959
      4          1           0        0.514572   -0.615604    0.881710
      5          1           0       -0.274490   -1.450708   -0.453686
      6          1           0       -0.407821    1.569593   -0.837543
      7          1           0        1.255020    0.775684   -1.000118
      8          1           0       -1.558808    0.620463    0.997636
 ---------------------------------------------------------------------
                    Distance matrix (angstroms):
                    1          2          3          4          5
     1  O    0.000000
     2  C    1.404552   0.000000
     3  C    2.457286   1.522715   0.000000
     4  H    2.066575   1.102381   2.144835   0.000000
     5  H    2.030580   1.110963   2.181164   1.761619   0.000000
     6  H    2.652674   2.264280   1.093758   2.929459   3.047514
     7  H    3.414981   2.249738   1.093171   2.454633   2.755868
     8  H    0.983776   1.936477   2.517187   2.416652   2.836469
                    6          7          8
     6  H    0.000000
     7  H    1.849800   0.000000
     8  H    2.365059   3.454380   0.000000
 Stoichiometry    C2H5O(2)
 Framework group  C1[X(C2H5O)]
 Deg. of freedom    18
 Full point group                 C1      NOp   1
 Largest Abelian subgroup         C1      NOp   1
 Largest concise Abelian subgroup C1      NOp   1
                         Standard orientation:                         
 ---------------------------------------------------------------------
 Center     Atomic      Atomic             Coordinates (Angstroms)
 Number     Number       Type             X           Y           Z
 ---------------------------------------------------------------------
      1          8           0        1.196910   -0.242046   -0.062352
      2          6           0        0.033242    0.540147    0.020212
      3          6           0       -1.260115   -0.255123   -0.095691
      4          1           0        0.014071    1.103749    0.967434
      5          1           0        0.098693    1.307708   -0.780291
      6          1           0       -1.214462   -1.347470   -0.064051
      7          1           0       -2.169334    0.190472    0.316364
      8          1           0        1.056987   -1.028229    0.512238
 ---------------------------------------------------------------------
 Rotational constants (GHZ):          38.3374557           9.8486769           8.3734830
 Leave Link  202 at Wed May 22 18:33:39 2019, MaxMem=   671088640 cpu:               0.2 elap:               0.0
 (Enter /shared/centos7/gaussian/g16/l301.exe)
 Standard basis: CC-pVTZ (5D, 7F)
 Ernie: Thresh=  0.10000D-02 Tol=  0.10000D-05 Strict=F.
 Ernie:  9 primitive shells out of 118 were deleted.
 There are   180 symmetry adapted cartesian basis functions of A   symmetry.
 There are   160 symmetry adapted basis functions of A   symmetry.
   160 basis functions,   241 primitive gaussians,   180 cartesian basis functions
    13 alpha electrons       12 beta electrons
       nuclear repulsion energy        74.5309850496 Hartrees.
 IExCor= 4336 DFT=T Ex+Corr=M062X ExCW=0 ScaHFX=  0.540000
 ScaDFX=  1.000000  1.000000  1.000000  1.000000 ScalE2=  1.000000  1.000000
 IRadAn=      5 IRanWt=     -1 IRanGd=            0 ICorTp=0 IEmpDi=  4
 NAtoms=    8 NActive=    8 NUniq=    8 SFac= 1.00D+00 NAtFMM=   60 NAOKFM=F Big=F
 Integral buffers will be    131072 words long.
 Raffenetti 2 integral format.
 Two-electron integral symmetry is turned on.
 Leave Link  301 at Wed May 22 18:33:39 2019, MaxMem=   671088640 cpu:               1.2 elap:               0.1
 (Enter /shared/centos7/gaussian/g16/l302.exe)
 NPDir=0 NMtPBC=     1 NCelOv=     1 NCel=       1 NClECP=     1 NCelD=      1
         NCelK=      1 NCelE2=     1 NClLst=     1 CellRange=     0.0.
 One-electron integrals computed using PRISM.
 One-electron integral symmetry used in STVInt
 NBasis=   160 RedAO= T EigKep=  1.05D-03  NBF=   160
 NBsUse=   160 1.00D-06 EigRej= -1.00D+00 NBFU=   160
 Precomputing XC quadrature grid using
 IXCGrd= 4 IRadAn=           5 IRanWt=          -1 IRanGd=           0 AccXCQ= 0.00D+00.
 Generated NRdTot=       0 NPtTot=           0 NUsed=           0 NTot=          32
 NSgBfM=   180   180   180   180   180 MxSgAt=     8 MxSgA2=     8.
 Leave Link  302 at Wed May 22 18:33:39 2019, MaxMem=   671088640 cpu:               4.9 elap:               0.3
 (Enter /shared/centos7/gaussian/g16/l303.exe)
 DipDrv:  MaxL=1.
 Leave Link  303 at Wed May 22 18:33:39 2019, MaxMem=   671088640 cpu:               0.5 elap:               0.0
 (Enter /shared/centos7/gaussian/g16/l401.exe)
 ExpMin= 1.03D-01 ExpMax= 1.53D+04 ExpMxC= 5.22D+02 IAcc=3 IRadAn=         5 AccDes= 0.00D+00
 Harris functional with IExCor= 1009 and IRadAn=       5 diagonalized for initial guess.
 HarFok:  IExCor= 1009 AccDes= 0.00D+00 IRadAn=         5 IDoV= 1 UseB2=F ITyADJ=14
 ICtDFT=  3500011 ScaDFX=  1.000000  1.000000  1.000000  1.000000
 FoFCou: FMM=F IPFlag=           0 FMFlag=      100000 FMFlg1=           0
         NFxFlg=           0 DoJE=T BraDBF=F KetDBF=T FulRan=T
         wScrn=  0.000000 ICntrl=       500 IOpCl=  0 I1Cent=   200000004 NGrid=           0
         NMat0=    1 NMatS0=      1 NMatT0=    0 NMatD0=    1 NMtDS0=    0 NMtDT0=    0
 Petite list used in FoFCou.
 Harris En= -154.279307227747    
 JPrj=0 DoOrth=F DoCkMO=F.
 Initial guess <Sx>= 0.0000 <Sy>= 0.0000 <Sz>= 0.5000 <S**2>= 0.7500 S= 0.5000
 Leave Link  401 at Wed May 22 18:33:40 2019, MaxMem=   671088640 cpu:              10.3 elap:               0.5
 (Enter /shared/centos7/gaussian/g16/l502.exe)
 Keep R1 and R2 ints in memory in canonical form, NReq=186086596.
 FoFCou: FMM=F IPFlag=           0 FMFlag=           0 FMFlg1=           0
         NFxFlg=           0 DoJE=F BraDBF=F KetDBF=F FulRan=T
         wScrn=  0.000000 ICntrl=       600 IOpCl=  0 I1Cent=           0 NGrid=           0
         NMat0=    1 NMatS0=  12880 NMatT0=    0 NMatD0=    1 NMtDS0=    0 NMtDT0=    0
 Symmetry not used in FoFCou.
 Two-electron integral symmetry not used.
 UHF open shell SCF:
 Using DIIS extrapolation, IDIIS=  1040.
 NGot=   671088640 LenX=   505111240 LenY=   505078399
 Requested convergence on RMS density matrix=1.00D-08 within 900 cycles.
 Requested convergence on MAX density matrix=1.00D-06.
 Requested convergence on             energy=1.00D-06.
 No special actions if energy rises.
 Integral accuracy reduced to 1.0D-05 until final iterations.

 Cycle   1  Pass 0  IDiag  1:
 E= -154.251249061548    
 DIIS: error= 2.30D-02 at cycle   1 NSaved=   1.
 NSaved= 1 IEnMin= 1 EnMin= -154.251249061548     IErMin= 1 ErrMin= 2.30D-02
 ErrMax= 2.30D-02  0.00D+00 EMaxC= 1.00D-01 BMatC= 5.04D-01 BMatP= 5.04D-01
 IDIUse=3 WtCom= 7.70D-01 WtEn= 2.30D-01
 Coeff-Com:  0.100D+01
 Coeff-En:   0.100D+01
 Coeff:      0.100D+01
 Gap=     0.309 Goal=   None    Shift=    0.000
 Gap=     0.311 Goal=   None    Shift=    0.000
 GapD=    0.309 DampG=1.000 DampE=0.500 DampFc=0.5000 IDamp=-1.
 Damping current iteration by 5.00D-01
 RMSDP=2.71D-03 MaxDP=1.05D-01              OVMax= 1.27D-01

 Cycle   2  Pass 0  IDiag  1:
 E= -154.300485258115     Delta-E=       -0.049236196566 Rises=F Damp=T
 DIIS: error= 8.50D-03 at cycle   2 NSaved=   2.
 NSaved= 2 IEnMin= 2 EnMin= -154.300485258115     IErMin= 2 ErrMin= 8.50D-03
 ErrMax= 8.50D-03  0.00D+00 EMaxC= 1.00D-01 BMatC= 3.94D-02 BMatP= 5.04D-01
 IDIUse=3 WtCom= 9.15D-01 WtEn= 8.50D-02
 Coeff-Com: -0.620D-01 0.106D+01
 Coeff-En:   0.000D+00 0.100D+01
 Coeff:     -0.567D-01 0.106D+01
 Gap=     0.334 Goal=   None    Shift=    0.000
 Gap=     0.344 Goal=   None    Shift=    0.000
 RMSDP=5.83D-04 MaxDP=2.40D-02 DE=-4.92D-02 OVMax= 6.80D-02

 Cycle   3  Pass 0  IDiag  1:
 E= -154.348513463187     Delta-E=       -0.048028205072 Rises=F Damp=F
 DIIS: error= 2.99D-03 at cycle   3 NSaved=   3.
 NSaved= 3 IEnMin= 3 EnMin= -154.348513463187     IErMin= 3 ErrMin= 2.99D-03
 ErrMax= 2.99D-03  0.00D+00 EMaxC= 1.00D-01 BMatC= 8.42D-03 BMatP= 3.94D-02
 IDIUse=3 WtCom= 9.70D-01 WtEn= 2.99D-02
 Coeff-Com: -0.702D-01 0.297D+00 0.773D+00
 Coeff-En:   0.000D+00 0.000D+00 0.100D+01
 Coeff:     -0.681D-01 0.288D+00 0.780D+00
 Gap=     0.349 Goal=   None    Shift=    0.000
 Gap=     0.321 Goal=   None    Shift=    0.000
 RMSDP=2.08D-04 MaxDP=8.64D-03 DE=-4.80D-02 OVMax= 1.24D-02

 Cycle   4  Pass 0  IDiag  1:
 E= -154.349765439686     Delta-E=       -0.001251976499 Rises=F Damp=F
 DIIS: error= 1.87D-03 at cycle   4 NSaved=   4.
 NSaved= 4 IEnMin= 4 EnMin= -154.349765439686     IErMin= 4 ErrMin= 1.87D-03
 ErrMax= 1.87D-03  0.00D+00 EMaxC= 1.00D-01 BMatC= 2.01D-03 BMatP= 8.42D-03
 IDIUse=3 WtCom= 9.81D-01 WtEn= 1.87D-02
 Coeff-Com: -0.203D-01 0.404D-01 0.354D+00 0.626D+00
 Coeff-En:   0.000D+00 0.000D+00 0.772D-01 0.923D+00
 Coeff:     -0.199D-01 0.396D-01 0.349D+00 0.632D+00
 Gap=     0.343 Goal=   None    Shift=    0.000
 Gap=     0.329 Goal=   None    Shift=    0.000
 RMSDP=7.84D-05 MaxDP=3.09D-03 DE=-1.25D-03 OVMax= 8.39D-03

 Cycle   5  Pass 0  IDiag  1:
 E= -154.350217980773     Delta-E=       -0.000452541087 Rises=F Damp=F
 DIIS: error= 3.30D-04 at cycle   5 NSaved=   5.
 NSaved= 5 IEnMin= 5 EnMin= -154.350217980773     IErMin= 5 ErrMin= 3.30D-04
 ErrMax= 3.30D-04  0.00D+00 EMaxC= 1.00D-01 BMatC= 7.13D-05 BMatP= 2.01D-03
 IDIUse=3 WtCom= 9.97D-01 WtEn= 3.30D-03
 Coeff-Com:  0.385D-02-0.199D-01-0.330D-01 0.618D-01 0.987D+00
 Coeff-En:   0.000D+00 0.000D+00 0.000D+00 0.000D+00 0.100D+01
 Coeff:      0.384D-02-0.198D-01-0.329D-01 0.616D-01 0.987D+00
 Gap=     0.345 Goal=   None    Shift=    0.000
 Gap=     0.330 Goal=   None    Shift=    0.000
 RMSDP=3.68D-05 MaxDP=1.73D-03 DE=-4.53D-04 OVMax= 4.65D-03

 Cycle   6  Pass 0  IDiag  1:
 E= -154.350260071198     Delta-E=       -0.000042090425 Rises=F Damp=F
 DIIS: error= 1.45D-04 at cycle   6 NSaved=   6.
 NSaved= 6 IEnMin= 6 EnMin= -154.350260071198     IErMin= 6 ErrMin= 1.45D-04
 ErrMax= 1.45D-04  0.00D+00 EMaxC= 1.00D-01 BMatC= 1.03D-05 BMatP= 7.13D-05
 IDIUse=3 WtCom= 9.99D-01 WtEn= 1.45D-03
 Coeff-Com:  0.323D-02-0.732D-02-0.642D-01-0.109D+00 0.180D-01 0.116D+01
 Coeff-En:   0.000D+00 0.000D+00 0.000D+00 0.000D+00 0.000D+00 0.100D+01
 Coeff:      0.323D-02-0.731D-02-0.641D-01-0.109D+00 0.180D-01 0.116D+01
 Gap=     0.345 Goal=   None    Shift=    0.000
 Gap=     0.330 Goal=   None    Shift=    0.000
 RMSDP=2.19D-05 MaxDP=1.07D-03 DE=-4.21D-05 OVMax= 2.86D-03

 Cycle   7  Pass 0  IDiag  1:
 E= -154.350268395874     Delta-E=       -0.000008324676 Rises=F Damp=F
 DIIS: error= 4.49D-05 at cycle   7 NSaved=   7.
 NSaved= 7 IEnMin= 7 EnMin= -154.350268395874     IErMin= 7 ErrMin= 4.49D-05
 ErrMax= 4.49D-05  0.00D+00 EMaxC= 1.00D-01 BMatC= 1.39D-06 BMatP= 1.03D-05
 IDIUse=1 WtCom= 1.00D+00 WtEn= 0.00D+00
 Coeff-Com:  0.452D-03-0.297D-03-0.158D-01-0.374D-01-0.672D-01 0.368D+00
 Coeff-Com:  0.752D+00
 Coeff:      0.452D-03-0.297D-03-0.158D-01-0.374D-01-0.672D-01 0.368D+00
 Coeff:      0.752D+00
 Gap=     0.345 Goal=   None    Shift=    0.000
 Gap=     0.330 Goal=   None    Shift=    0.000
 RMSDP=3.66D-06 MaxDP=1.75D-04 DE=-8.32D-06 OVMax= 4.49D-04

 Initial convergence to 1.0D-05 achieved.  Increase integral accuracy.
 Cycle   8  Pass 1  IDiag  1:
 E= -154.350260609546     Delta-E=        0.000007786329 Rises=F Damp=F
 DIIS: error= 3.16D-05 at cycle   1 NSaved=   1.
 NSaved= 1 IEnMin= 1 EnMin= -154.350260609546     IErMin= 1 ErrMin= 3.16D-05
 ErrMax= 3.16D-05  0.00D+00 EMaxC= 1.00D-01 BMatC= 1.27D-06 BMatP= 1.27D-06
 IDIUse=1 WtCom= 1.00D+00 WtEn= 0.00D+00
 Coeff-Com:  0.100D+01
 Coeff:      0.100D+01
 Gap=     0.345 Goal=   None    Shift=    0.000
 Gap=     0.330 Goal=   None    Shift=    0.000
 RMSDP=3.66D-06 MaxDP=1.75D-04 DE= 7.79D-06 OVMax= 1.80D-04

 Cycle   9  Pass 1  IDiag  1:
 E= -154.350260838360     Delta-E=       -0.000000228814 Rises=F Damp=F
 DIIS: error= 1.28D-05 at cycle   2 NSaved=   2.
 NSaved= 2 IEnMin= 2 EnMin= -154.350260838360     IErMin= 2 ErrMin= 1.28D-05
 ErrMax= 1.28D-05  0.00D+00 EMaxC= 1.00D-01 BMatC= 1.04D-07 BMatP= 1.27D-06
 IDIUse=1 WtCom= 1.00D+00 WtEn= 0.00D+00
 Coeff-Com:  0.545D-01 0.946D+00
 Coeff:      0.545D-01 0.946D+00
 Gap=     0.345 Goal=   None    Shift=    0.000
 Gap=     0.330 Goal=   None    Shift=    0.000
 RMSDP=1.08D-06 MaxDP=3.37D-05 DE=-2.29D-07 OVMax= 8.91D-05

 Cycle  10  Pass 1  IDiag  1:
 E= -154.350260862418     Delta-E=       -0.000000024058 Rises=F Damp=F
 DIIS: error= 8.70D-06 at cycle   3 NSaved=   3.
 NSaved= 3 IEnMin= 3 EnMin= -154.350260862418     IErMin= 3 ErrMin= 8.70D-06
 ErrMax= 8.70D-06  0.00D+00 EMaxC= 1.00D-01 BMatC= 5.73D-08 BMatP= 1.04D-07
 IDIUse=1 WtCom= 1.00D+00 WtEn= 0.00D+00
 Coeff-Com: -0.551D-01 0.420D+00 0.635D+00
 Coeff:     -0.551D-01 0.420D+00 0.635D+00
 Gap=     0.345 Goal=   None    Shift=    0.000
 Gap=     0.330 Goal=   None    Shift=    0.000
 RMSDP=4.67D-07 MaxDP=2.21D-05 DE=-2.41D-08 OVMax= 3.92D-05

 Cycle  11  Pass 1  IDiag  1:
 E= -154.350260877383     Delta-E=       -0.000000014965 Rises=F Damp=F
 DIIS: error= 1.95D-06 at cycle   4 NSaved=   4.
 NSaved= 4 IEnMin= 4 EnMin= -154.350260877383     IErMin= 4 ErrMin= 1.95D-06
 ErrMax= 1.95D-06  0.00D+00 EMaxC= 1.00D-01 BMatC= 2.40D-09 BMatP= 5.73D-08
 IDIUse=1 WtCom= 1.00D+00 WtEn= 0.00D+00
 Coeff-Com: -0.278D-02-0.105D+00-0.450D-01 0.115D+01
 Coeff:     -0.278D-02-0.105D+00-0.450D-01 0.115D+01
 Gap=     0.345 Goal=   None    Shift=    0.000
 Gap=     0.330 Goal=   None    Shift=    0.000
 RMSDP=2.83D-07 MaxDP=1.36D-05 DE=-1.50D-08 OVMax= 3.14D-05

 Cycle  12  Pass 1  IDiag  1:
 E= -154.350260879319     Delta-E=       -0.000000001936 Rises=F Damp=F
 DIIS: error= 9.97D-07 at cycle   5 NSaved=   5.
 NSaved= 5 IEnMin= 5 EnMin= -154.350260879319     IErMin= 5 ErrMin= 9.97D-07
 ErrMax= 9.97D-07  0.00D+00 EMaxC= 1.00D-01 BMatC= 1.03D-09 BMatP= 2.40D-09
 IDIUse=1 WtCom= 1.00D+00 WtEn= 0.00D+00
 Coeff-Com:  0.947D-02-0.135D+00-0.152D+00 0.539D+00 0.739D+00
 Coeff:      0.947D-02-0.135D+00-0.152D+00 0.539D+00 0.739D+00
 Gap=     0.345 Goal=   None    Shift=    0.000
 Gap=     0.330 Goal=   None    Shift=    0.000
 RMSDP=1.26D-07 MaxDP=4.64D-06 DE=-1.94D-09 OVMax= 1.65D-05

 Cycle  13  Pass 1  IDiag  1:
 E= -154.350260879738     Delta-E=       -0.000000000419 Rises=F Damp=F
 DIIS: error= 3.32D-07 at cycle   6 NSaved=   6.
 NSaved= 6 IEnMin= 6 EnMin= -154.350260879738     IErMin= 6 ErrMin= 3.32D-07
 ErrMax= 3.32D-07  0.00D+00 EMaxC= 1.00D-01 BMatC= 1.01D-10 BMatP= 1.03D-09
 IDIUse=1 WtCom= 1.00D+00 WtEn= 0.00D+00
 Coeff-Com:  0.348D-02-0.284D-01-0.437D-01 0.144D-02 0.254D+00 0.814D+00
 Coeff:      0.348D-02-0.284D-01-0.437D-01 0.144D-02 0.254D+00 0.814D+00
 Gap=     0.345 Goal=   None    Shift=    0.000
 Gap=     0.330 Goal=   None    Shift=    0.000
 RMSDP=4.19D-08 MaxDP=1.52D-06 DE=-4.19D-10 OVMax= 5.66D-06

 Cycle  14  Pass 1  IDiag  1:
 E= -154.350260879781     Delta-E=       -0.000000000043 Rises=F Damp=F
 DIIS: error= 9.98D-08 at cycle   7 NSaved=   7.
 NSaved= 7 IEnMin= 7 EnMin= -154.350260879781     IErMin= 7 ErrMin= 9.98D-08
 ErrMax= 9.98D-08  0.00D+00 EMaxC= 1.00D-01 BMatC= 5.17D-12 BMatP= 1.01D-10
 IDIUse=1 WtCom= 1.00D+00 WtEn= 0.00D+00
 Coeff-Com: -0.779D-03 0.141D-01 0.134D-01-0.673D-01-0.634D-01 0.749D-01
 Coeff-Com:  0.103D+01
 Coeff:     -0.779D-03 0.141D-01 0.134D-01-0.673D-01-0.634D-01 0.749D-01
 Coeff:      0.103D+01
 Gap=     0.345 Goal=   None    Shift=    0.000
 Gap=     0.330 Goal=   None    Shift=    0.000
 RMSDP=1.53D-08 MaxDP=5.22D-07 DE=-4.34D-11 OVMax= 2.30D-06

 Cycle  15  Pass 1  IDiag  1:
 E= -154.350260879784     Delta-E=       -0.000000000003 Rises=F Damp=F
 DIIS: error= 2.85D-08 at cycle   8 NSaved=   8.
 NSaved= 8 IEnMin= 8 EnMin= -154.350260879784     IErMin= 8 ErrMin= 2.85D-08
 ErrMax= 2.85D-08  0.00D+00 EMaxC= 1.00D-01 BMatC= 4.07D-13 BMatP= 5.17D-12
 IDIUse=1 WtCom= 1.00D+00 WtEn= 0.00D+00
 Coeff-Com: -0.316D-03 0.388D-02 0.429D-02-0.114D-01-0.234D-01-0.323D-01
 Coeff-Com:  0.159D+00 0.900D+00
 Coeff:     -0.316D-03 0.388D-02 0.429D-02-0.114D-01-0.234D-01-0.323D-01
 Coeff:      0.159D+00 0.900D+00
 Gap=     0.345 Goal=   None    Shift=    0.000
 Gap=     0.330 Goal=   None    Shift=    0.000
 RMSDP=3.33D-09 MaxDP=1.30D-07 DE=-2.50D-12 OVMax= 4.63D-07

 SCF Done:  E(UM062X) =  -154.350260880     A.U. after   15 cycles
            NFock= 15  Conv=0.33D-08     -V/T= 2.0063
 <Sx>= 0.0000 <Sy>= 0.0000 <Sz>= 0.5000 <S**2>= 0.7553 S= 0.5026
 <L.S>= 0.000000000000E+00
 KE= 1.533812256005D+02 PE=-5.098809721618D+02 EE= 1.276185006320D+02
 Annihilation of the first spin contaminant:
 S**2 before annihilation     0.7553,   after     0.7500
 Leave Link  502 at Wed May 22 18:33:55 2019, MaxMem=   671088640 cpu:             228.7 elap:              15.3
 (Enter /shared/centos7/gaussian/g16/l801.exe)
 DoSCS=F DFT=T ScalE2(SS,OS)=  1.000000  1.000000
 Range of M.O.s used for correlation:     1   160
 NBasis=   160 NAE=    13 NBE=    12 NFC=     0 NFV=     0
 NROrb=    160 NOA=    13 NOB=    12 NVA=   147 NVB=   148
 Leave Link  801 at Wed May 22 18:33:55 2019, MaxMem=   671088640 cpu:               0.8 elap:               0.1
 (Enter /shared/centos7/gaussian/g16/l1101.exe)
 Using compressed storage, NAtomX=     8.
 Will process      9 centers per pass.
 Leave Link 1101 at Wed May 22 18:33:55 2019, MaxMem=   671088640 cpu:               5.3 elap:               0.3
 (Enter /shared/centos7/gaussian/g16/l1102.exe)
 Symmetrizing basis deriv contribution to polar:
 IMax=3 JMax=2 DiffMx= 0.00D+00
 Leave Link 1102 at Wed May 22 18:33:55 2019, MaxMem=   671088640 cpu:               0.7 elap:               0.1
 (Enter /shared/centos7/gaussian/g16/l1110.exe)
 Forming Gx(P) for the SCF density, NAtomX=     8.
 Integral derivatives from FoFJK, PRISM(SPDF).
 Do as many integral derivatives as possible in FoFJK.
 G2DrvN: MDV=     671087928.
 G2DrvN: will do     9 centers at a time, making    1 passes.
 Calling FoFCou, ICntrl=  3107 FMM=F I1Cent=   0 AccDes= 0.00D+00.
 FoFJK:  IHMeth= 1 ICntrl=    3107 DoSepK=F KAlg= 0 I1Cent=           0 FoldK=F
 IRaf=         0 NMat=       1 IRICut=       1 DoRegI=T DoRafI=F ISym2E= 0 IDoP0=0 IntGTp=1.
 FoFCou: FMM=F IPFlag=           0 FMFlag=      100000 FMFlg1=           0
         NFxFlg=           0 DoJE=F BraDBF=F KetDBF=F FulRan=T
         wScrn=  0.000000 ICntrl=      3107 IOpCl=  1 I1Cent=           0 NGrid=           0
         NMat0=    1 NMatS0=      1 NMatT0=    0 NMatD0=    1 NMtDS0=    0 NMtDT0=    0
 Symmetry not used in FoFCou.
 End of G2Drv F.D. properties file   721 does not exist.
 End of G2Drv F.D. properties file   722 does not exist.
 End of G2Drv F.D. properties file   788 does not exist.
 Leave Link 1110 at Wed May 22 18:34:17 2019, MaxMem=   671088640 cpu:             437.2 elap:              21.9
 (Enter /shared/centos7/gaussian/g16/l1002.exe)
 Minotr:  UHF open shell wavefunction.
          IDoAtm=11111111
          Direct CPHF calculation.
          Differentiating once with respect to nuclear coordinates.
          Requested convergence is 1.0D-08 RMS, and 1.0D-07 maximum.
          Secondary convergence is 1.0D-12 RMS, and 1.0D-12 maximum.
          NewPWx=T KeepS1=F KeepF1=F KeepIn=T MapXYZ=F SortEE=F KeepMc=T.
         2371 words used for storage of precomputed grid.
 Keep R1 and R2 ints in memory in canonical form, NReq=186024337.
 FoFCou: FMM=F IPFlag=           0 FMFlag=           0 FMFlg1=           0
         NFxFlg=           0 DoJE=F BraDBF=F KetDBF=F FulRan=T
         wScrn=  0.000000 ICntrl=       600 IOpCl=  0 I1Cent=           0 NGrid=           0
         NMat0=    1 NMatS0=  12880 NMatT0=    0 NMatD0=    1 NMtDS0=    0 NMtDT0=    0
 Symmetry not used in FoFCou.
 Two-electron integral symmetry not used.
          MDV=     671088640 using IRadAn=       1.
          Solving linear equations simultaneously, MaxMat=       0.
          There are    27 degrees of freedom in the 1st order CPHF.  IDoFFX=6 NUNeed=     0.
     21 vectors produced by pass  0 Test12= 1.37D-14 3.70D-09 XBig12= 1.21D-01 1.04D-01.
 AX will form    21 AO Fock derivatives at one time.
     21 vectors produced by pass  1 Test12= 1.37D-14 3.70D-09 XBig12= 1.10D-02 1.55D-02.
     21 vectors produced by pass  2 Test12= 1.37D-14 3.70D-09 XBig12= 3.99D-04 5.09D-03.
     21 vectors produced by pass  3 Test12= 1.37D-14 3.70D-09 XBig12= 5.53D-06 6.10D-04.
     21 vectors produced by pass  4 Test12= 1.37D-14 3.70D-09 XBig12= 7.03D-08 4.20D-05.
     21 vectors produced by pass  5 Test12= 1.37D-14 3.70D-09 XBig12= 7.32D-10 3.77D-06.
     21 vectors produced by pass  6 Test12= 1.37D-14 3.70D-09 XBig12= 5.47D-12 3.65D-07.
      9 vectors produced by pass  7 Test12= 1.37D-14 3.70D-09 XBig12= 5.27D-14 4.31D-08.
 InvSVY:  IOpt=1 It=  1 EMax= 1.11D-15
 Solved reduced A of dimension   156 with    21 vectors.
 End of Minotr F.D. properties file   721 does not exist.
 End of Minotr F.D. properties file   722 does not exist.
 End of Minotr F.D. properties file   788 does not exist.
 Leave Link 1002 at Wed May 22 18:34:56 2019, MaxMem=   671088640 cpu:             775.2 elap:              38.8
 (Enter /shared/centos7/gaussian/g16/l601.exe)
 Copying SCF densities to generalized density rwf, IOpCl= 1 IROHF=0.

 **********************************************************************

            Population analysis using the SCF density.

 **********************************************************************

 Orbital symmetries:
 Alpha Orbitals:
       Occupied  (A) (A) (A) (A) (A) (A) (A) (A) (A) (A) (A) (A)
                 (A)
       Virtual   (A) (A) (A) (A) (A) (A) (A) (A) (A) (A) (A) (A)
                 (A) (A) (A) (A) (A) (A) (A) (A) (A) (A) (A) (A)
                 (A) (A) (A) (A) (A) (A) (A) (A) (A) (A) (A) (A)
                 (A) (A) (A) (A) (A) (A) (A) (A) (A) (A) (A) (A)
                 (A) (A) (A) (A) (A) (A) (A) (A) (A) (A) (A) (A)
                 (A) (A) (A) (A) (A) (A) (A) (A) (A) (A) (A) (A)
                 (A) (A) (A) (A) (A) (A) (A) (A) (A) (A) (A) (A)
                 (A) (A) (A) (A) (A) (A) (A) (A) (A) (A) (A) (A)
                 (A) (A) (A) (A) (A) (A) (A) (A) (A) (A) (A) (A)
                 (A) (A) (A) (A) (A) (A) (A) (A) (A) (A) (A) (A)
                 (A) (A) (A) (A) (A) (A) (A) (A) (A) (A) (A) (A)
                 (A) (A) (A) (A) (A) (A) (A) (A) (A) (A) (A) (A)
                 (A) (A) (A)
 Beta  Orbitals:
       Occupied  (A) (A) (A) (A) (A) (A) (A) (A) (A) (A) (A) (A)
       Virtual   (A) (A) (A) (A) (A) (A) (A) (A) (A) (A) (A) (A)
                 (A) (A) (A) (A) (A) (A) (A) (A) (A) (A) (A) (A)
                 (A) (A) (A) (A) (A) (A) (A) (A) (A) (A) (A) (A)
                 (A) (A) (A) (A) (A) (A) (A) (A) (A) (A) (A) (A)
                 (A) (A) (A) (A) (A) (A) (A) (A) (A) (A) (A) (A)
                 (A) (A) (A) (A) (A) (A) (A) (A) (A) (A) (A) (A)
                 (A) (A) (A) (A) (A) (A) (A) (A) (A) (A) (A) (A)
                 (A) (A) (A) (A) (A) (A) (A) (A) (A) (A) (A) (A)
                 (A) (A) (A) (A) (A) (A) (A) (A) (A) (A) (A) (A)
                 (A) (A) (A) (A) (A) (A) (A) (A) (A) (A) (A) (A)
                 (A) (A) (A) (A) (A) (A) (A) (A) (A) (A) (A) (A)
                 (A) (A) (A) (A) (A) (A) (A) (A) (A) (A) (A) (A)
                 (A) (A) (A) (A)
 The electronic state is 2-A.
 Alpha  occ. eigenvalues --  -19.62377 -10.59398 -10.55528  -1.14679  -0.83864
 Alpha  occ. eigenvalues --   -0.71006  -0.57486  -0.53109  -0.51938  -0.46292
 Alpha  occ. eigenvalues --   -0.41078  -0.36514  -0.27571
 Alpha virt. eigenvalues --    0.06963   0.10005   0.10905   0.13794   0.15626
 Alpha virt. eigenvalues --    0.20770   0.23844   0.32047   0.34574   0.37577
 Alpha virt. eigenvalues --    0.38663   0.40412   0.41855   0.43647   0.47374
 Alpha virt. eigenvalues --    0.48208   0.49804   0.50996   0.51991   0.54592
 Alpha virt. eigenvalues --    0.59578   0.61836   0.68652   0.73067   0.75884
 Alpha virt. eigenvalues --    0.80530   0.87266   0.92569   0.94411   0.95186
 Alpha virt. eigenvalues --    0.99657   1.02344   1.06203   1.09978   1.11081
 Alpha virt. eigenvalues --    1.14305   1.19214   1.20316   1.22634   1.27261
 Alpha virt. eigenvalues --    1.29982   1.33285   1.34706   1.35601   1.40542
 Alpha virt. eigenvalues --    1.44598   1.51023   1.54934   1.60420   1.87983
 Alpha virt. eigenvalues --    1.96336   1.97128   2.07336   2.09354   2.18639
 Alpha virt. eigenvalues --    2.20655   2.22947   2.33306   2.34696   2.40264
 Alpha virt. eigenvalues --    2.50851   2.55054   2.60281   2.64766   2.69626
 Alpha virt. eigenvalues --    2.72591   2.81702   2.85651   2.86086   2.87619
 Alpha virt. eigenvalues --    2.90609   2.93871   2.95790   2.97514   3.00503
 Alpha virt. eigenvalues --    3.02766   3.09642   3.11694   3.14853   3.16804
 Alpha virt. eigenvalues --    3.21520   3.25299   3.29662   3.33149   3.38198
 Alpha virt. eigenvalues --    3.42491   3.43174   3.47032   3.50570   3.51450
 Alpha virt. eigenvalues --    3.57889   3.61351   3.61861   3.66636   3.71510
 Alpha virt. eigenvalues --    3.77574   3.79694   3.82924   3.85612   3.86663
 Alpha virt. eigenvalues --    3.88661   3.92499   3.96161   3.99082   4.02411
 Alpha virt. eigenvalues --    4.05203   4.05928   4.13222   4.13668   4.21347
 Alpha virt. eigenvalues --    4.27221   4.34427   4.37441   4.46384   4.59294
 Alpha virt. eigenvalues --    4.67653   4.71862   4.74649   4.76710   4.79744
 Alpha virt. eigenvalues --    4.83717   4.86572   4.92963   5.00689   5.07978
 Alpha virt. eigenvalues --    5.15516   5.22505   5.32624   5.33495   5.39026
 Alpha virt. eigenvalues --    5.55395   5.63669   5.73930   5.76741   5.99849
 Alpha virt. eigenvalues --    6.15946   6.40740   6.60644   6.62932   6.72573
 Alpha virt. eigenvalues --    6.86622   6.90465   7.11646   7.32352  11.03800
 Alpha virt. eigenvalues --   11.56012  12.41965
  Beta  occ. eigenvalues --  -19.62375 -10.59452 -10.54746  -1.14635  -0.81613
  Beta  occ. eigenvalues --   -0.68820  -0.56837  -0.52265  -0.50979  -0.45353
  Beta  occ. eigenvalues --   -0.40352  -0.35548
  Beta virt. eigenvalues --   -0.02511   0.06483   0.09635   0.10967   0.13230
  Beta virt. eigenvalues --    0.15431   0.20436   0.23718   0.31144   0.35459
  Beta virt. eigenvalues --    0.35770   0.37827   0.40304   0.42178   0.43533
  Beta virt. eigenvalues --    0.47392   0.47976   0.49778   0.51963   0.52416
  Beta virt. eigenvalues --    0.55735   0.59863   0.61522   0.68594   0.72862
  Beta virt. eigenvalues --    0.76023   0.80445   0.86746   0.92084   0.93744
  Beta virt. eigenvalues --    0.94730   0.99285   1.02625   1.06263   1.09470
  Beta virt. eigenvalues --    1.11249   1.14476   1.19480   1.20376   1.22673
  Beta virt. eigenvalues --    1.27626   1.30146   1.33381   1.34600   1.36192
  Beta virt. eigenvalues --    1.40501   1.44562   1.52313   1.55194   1.61565
  Beta virt. eigenvalues --    1.88104   1.96837   1.97598   2.07684   2.10984
  Beta virt. eigenvalues --    2.18925   2.23814   2.25539   2.33785   2.35529
  Beta virt. eigenvalues --    2.41237   2.51793   2.56946   2.62884   2.67955
  Beta virt. eigenvalues --    2.71216   2.75501   2.84060   2.87124   2.88248
  Beta virt. eigenvalues --    2.89895   2.92793   2.95737   2.98303   3.01855
  Beta virt. eigenvalues --    3.02923   3.05522   3.11771   3.13116   3.16899
  Beta virt. eigenvalues --    3.18155   3.22869   3.26371   3.30504   3.33958
  Beta virt. eigenvalues --    3.39215   3.43055   3.43748   3.47463   3.51164
  Beta virt. eigenvalues --    3.52551   3.58227   3.61866   3.62847   3.67336
  Beta virt. eigenvalues --    3.72267   3.78171   3.80237   3.83722   3.86552
  Beta virt. eigenvalues --    3.87463   3.88999   3.93084   3.97229   4.00415
  Beta virt. eigenvalues --    4.03281   4.05876   4.06701   4.13389   4.14085
  Beta virt. eigenvalues --    4.22833   4.28504   4.35624   4.38236   4.48695
  Beta virt. eigenvalues --    4.60547   4.68613   4.73180   4.77023   4.77941
  Beta virt. eigenvalues --    4.82470   4.85662   4.89218   4.94811   5.02825
  Beta virt. eigenvalues --    5.10410   5.17544   5.24425   5.36428   5.37960
  Beta virt. eigenvalues --    5.39776   5.55782   5.71237   5.74210   5.76713
  Beta virt. eigenvalues --    6.00526   6.15921   6.40764   6.60696   6.62966
  Beta virt. eigenvalues --    6.72584   6.86658   6.90501   7.11639   7.32386
  Beta virt. eigenvalues --   11.04523  11.56210  12.42708
          Condensed to atoms (all electrons):
               1          2          3          4          5          6
     1  O    7.860398   0.343892  -0.054027  -0.052772  -0.033886  -0.000956
     2  C    0.343892   4.640037   0.323892   0.406775   0.385075  -0.041355
     3  C   -0.054027   0.323892   5.454417  -0.069253  -0.043160   0.391322
     4  H   -0.052772   0.406775  -0.069253   0.713834  -0.075919   0.004607
     5  H   -0.033886   0.385075  -0.043160  -0.075919   0.648944   0.002395
     6  H   -0.000956  -0.041355   0.391322   0.004607   0.002395   0.523564
     7  H    0.004573  -0.035914   0.372146   0.001714   0.000370  -0.037296
     8  H    0.319450  -0.047342  -0.004749  -0.010761   0.011743   0.004369
               7          8
     1  O    0.004573   0.319450
     2  C   -0.035914  -0.047342
     3  C    0.372146  -0.004749
     4  H    0.001714  -0.010761
     5  H    0.000370   0.011743
     6  H   -0.037296   0.004369
     7  H    0.548451   0.000132
     8  H    0.000132   0.480228
          Atomic-Atomic Spin Densities.
               1          2          3          4          5          6
     1  O    0.002792   0.004392  -0.001586   0.001750  -0.000639   0.000244
     2  C    0.004392  -0.065040  -0.039938   0.017299   0.011483   0.003776
     3  C   -0.001586  -0.039938   1.147308  -0.029201  -0.022283  -0.003444
     4  H    0.001750   0.017299  -0.029201   0.077230  -0.020369  -0.000515
     5  H   -0.000639   0.011483  -0.022283  -0.020369   0.067747   0.000031
     6  H    0.000244   0.003776  -0.003444  -0.000515   0.000031  -0.040094
     7  H   -0.000238   0.002441  -0.002288  -0.001234   0.000903   0.003412
     8  H   -0.002665   0.000128   0.004137  -0.003099   0.001224   0.000076
               7          8
     1  O   -0.000238  -0.002665
     2  C    0.002441   0.000128
     3  C   -0.002288   0.004137
     4  H   -0.001234  -0.003099
     5  H    0.000903   0.001224
     6  H    0.003412   0.000076
     7  H   -0.039744   0.000085
     8  H    0.000085   0.002035
 Mulliken charges and spin densities:
               1          2
     1  O   -0.386671   0.004049
     2  C    0.024941  -0.065458
     3  C   -0.370587   1.052706
     4  H    0.081774   0.041862
     5  H    0.104438   0.038096
     6  H    0.153350  -0.036513
     7  H    0.145824  -0.036662
     8  H    0.246930   0.001921
 Sum of Mulliken charges =  -0.00000   1.00000
 Mulliken charges and spin densities with hydrogens summed into heavy atoms:
               1          2
     1  O   -0.139741   0.005970
     2  C    0.211154   0.014500
     3  C   -0.071413   0.979530
 APT charges:
               1
     1  O   -0.513584
     2  C   -0.533962
     3  C   -0.765421
     4  H    0.285386
     5  H    0.331996
     6  H    0.338726
     7  H    0.414072
     8  H    0.442788
 Sum of APT charges =  -0.00000
 APT charges with hydrogens summed into heavy atoms:
               1
     1  O   -0.070796
     2  C    0.083419
     3  C   -0.012623
 Electronic spatial extent (au):  <R**2>=            182.1170
 Charge=             -0.0000 electrons
 Dipole moment (field-independent basis, Debye):
    X=             -1.1642    Y=             -0.3543    Z=              1.2196  Tot=              1.7229
 Quadrupole moment (field-independent basis, Debye-Ang):
   XX=            -22.0293   YY=            -16.9026   ZZ=            -19.8977
   XY=             -0.9177   XZ=              0.3854   YZ=             -1.3014
 Traceless Quadrupole moment (field-independent basis, Debye-Ang):
   XX=             -2.4194   YY=              2.7073   ZZ=             -0.2879
   XY=             -0.9177   XZ=              0.3854   YZ=             -1.3014
 Octapole moment (field-independent basis, Debye-Ang**2):
  XXX=              1.2508  YYY=             -3.7742  ZZZ=              1.1888  XYY=              3.5229
  XXY=             -0.9245  XXZ=              2.8771  XZZ=              3.6036  YZZ=              0.2904
  YYZ=              0.9979  XYZ=             -1.6260
 Hexadecapole moment (field-independent basis, Debye-Ang**3):
 XXXX=           -154.7882 YYYY=            -52.7776 ZZZZ=            -29.5130 XXXY=             -5.7155
 XXXZ=             -2.8097 YYYX=             -3.1517 YYYZ=             -2.5689 ZZZX=             -0.5357
 ZZZY=             -1.1905 XXYY=            -32.4868 XXZZ=            -32.1543 YYZZ=            -13.2972
 XXYZ=             -1.2566 YYXZ=              1.0605 ZZXY=             -1.6680
 N-N= 7.453098504957D+01 E-N=-5.098809688033D+02  KE= 1.533812256005D+02
  Exact polarizability:   0.000   0.000   0.000   0.000   0.000   0.000
 Approx polarizability:  33.320  -0.126  34.379  -0.745  -0.986  28.536
                          Isotropic Fermi Contact Couplings
        Atom                 a.u.       MegaHertz       Gauss      10(-4) cm-1
     1  O(17)              0.00289      -1.75092      -0.62477      -0.58404
     2  C(13)             -0.02794     -31.41011     -11.20791     -10.47729
     3  C(13)              0.24666     277.28912      98.94365      92.49369
     4  H(1)               0.02063      92.23591      32.91207      30.76659
     5  H(1)               0.01977      88.37489      31.53436      29.47869
     6  H(1)              -0.01431     -63.95485     -22.82068     -21.33304
     7  H(1)              -0.01262     -56.42086     -20.13237     -18.81997
     8  H(1)              -0.00027      -1.21832      -0.43473      -0.40639
 --------------------------------------------------------
       Center         ----  Spin Dipole Couplings  ----
                      3XX-RR        3YY-RR        3ZZ-RR
 --------------------------------------------------------
     1   Atom        0.023735      0.000621     -0.024356
     2   Atom       -0.001415     -0.013815      0.015230
     3   Atom       -0.479461     -0.513972      0.993433
     4   Atom        0.000200      0.001195     -0.001395
     5   Atom        0.001897      0.007032     -0.008930
     6   Atom       -0.067495      0.074682     -0.007187
     7   Atom        0.035276     -0.041401      0.006125
     8   Atom        0.011462     -0.005992     -0.005471
 --------------------------------------------------------
                        XY            XZ            YZ
 --------------------------------------------------------
     1   Atom        0.006139     -0.001841     -0.000870
     2   Atom        0.005725      0.009516      0.004052
     3   Atom       -0.035828      0.293525     -0.170915
     4   Atom        0.009266      0.006402      0.010045
     5   Atom        0.013322     -0.003877     -0.007022
     6   Atom       -0.007715      0.011708     -0.007642
     7   Atom       -0.053434     -0.028542      0.012124
     8   Atom       -0.006326      0.003546     -0.001715
 --------------------------------------------------------


 ---------------------------------------------------------------------------------
              Anisotropic Spin Dipole Couplings in Principal Axis System
 ---------------------------------------------------------------------------------

       Atom             a.u.   MegaHertz   Gauss  10(-4) cm-1        Axes

              Baa    -0.0244     1.769     0.631     0.590  0.0349  0.0261  0.9991
     1 O(17)  Bbb    -0.0009     0.065     0.023     0.022 -0.2429  0.9699 -0.0169
              Bcc     0.0253    -1.834    -0.654    -0.612  0.9694  0.2421 -0.0401
 
              Baa    -0.0161    -2.155    -0.769    -0.719 -0.3572  0.9340 -0.0123
     2 C(13)  Bbb    -0.0046    -0.613    -0.219    -0.205  0.8301  0.3113 -0.4626
              Bcc     0.0206     2.768     0.988     0.923  0.4282  0.1755  0.8865
 
              Baa    -0.5377   -72.159   -25.748   -24.070  0.8328  0.5447 -0.0988
     3 C(13)  Bbb    -0.5313   -71.295   -25.440   -23.781 -0.5208  0.8314  0.1935
              Bcc     1.0690   143.454    51.188    47.851  0.1876 -0.1096  0.9761
 
              Baa    -0.0106    -5.651    -2.017    -1.885 -0.2647  0.7376 -0.6212
     4 H(1)   Bbb    -0.0068    -3.606    -1.287    -1.203  0.7938 -0.1991 -0.5746
              Bcc     0.0174     9.258     3.303     3.088  0.5475  0.6453  0.5328
 
              Baa    -0.0118    -6.306    -2.250    -2.103 -0.2158  0.4711  0.8553
     5 H(1)   Bbb    -0.0084    -4.457    -1.590    -1.487  0.7671 -0.4602  0.4470
              Bcc     0.0202    10.763     3.841     3.590  0.6042  0.7525 -0.2621
 
              Baa    -0.0700   -37.324   -13.318   -12.450  0.9831  0.0430 -0.1781
     6 H(1)   Bbb    -0.0060    -3.188    -1.138    -1.064  0.1726  0.1093  0.9789
              Bcc     0.0759    40.512    14.456    13.513 -0.0616  0.9931 -0.1000
 
              Baa    -0.0689   -36.763   -13.118   -12.263  0.4633  0.8856  0.0331
     7 H(1)   Bbb    -0.0074    -3.965    -1.415    -1.323  0.3435 -0.2139  0.9145
              Bcc     0.0763    40.728    14.533    13.586  0.8169 -0.4123 -0.4033
 
              Baa    -0.0082    -4.368    -1.559    -1.457  0.2537  0.9324  0.2575
     8 H(1)   Bbb    -0.0061    -3.254    -1.161    -1.085 -0.2599 -0.1907  0.9466
              Bcc     0.0143     7.622     2.720     2.542  0.9317 -0.3071  0.1939
 

 ---------------------------------------------------------------------------------

 No NMR shielding tensors so no spin-rotation constants.
 Leave Link  601 at Wed May 22 18:34:57 2019, MaxMem=   671088640 cpu:               7.8 elap:               0.4
 (Enter /shared/centos7/gaussian/g16/l701.exe)
 SCFChk:  SCF convergence  3.33D-09 required  1.00D-08
 ... and contract with generalized density number  0.
 Compute integral second derivatives.
 Entering OneElI...
 Calculate overlap and kinetic energy integrals
    NBasis = 180  MinDer = 2  MaxDer = 2
 Requested accuracy = 0.1000D-12
 PrmmSu-InSpLW:  IPartL=    0 NPrtUS=   20 NPrtUL=    1 DoSpLW=F IThBeg=    0 IThEnd=   19 NThAct=   20.
 PrsmSu:  NPrtUS=  20 ThrOK=T IAlg=1 NPAlg=1 LenDen=           0 ISkipM=0 DoSpLW=F IThBeg=    0 IThEnd=   19.
 Prism:   IPart=     0 DynPar=F LinDyn=F Incr=           1.
 PRISM was handed    33498274 working-precision words and  1830 shell-pairs
 PRISM was handed    33498274 working-precision words and  1830 shell-pairs
 PRISM was handed    33498274 working-precision words and  1830 shell-pairs
 PRISM was handed    33498274 working-precision words and  1830 shell-pairs
 PRISM was handed    33498274 working-precision words and  1830 shell-pairs
 PRISM was handed    33498274 working-precision words and  1830 shell-pairs
 PRISM was handed    33498274 working-precision words and  1830 shell-pairs
 PRISM was handed    33498274 working-precision words and  1830 shell-pairs
 PRISM was handed    33498274 working-precision words and  1830 shell-pairs
 PRISM was handed    33498274 working-precision words and  1830 shell-pairs
 PRISM was handed    33498274 working-precision words and  1830 shell-pairs
 PRISM was handed    33498274 working-precision words and  1830 shell-pairs
 PRISM was handed    33498274 working-precision words and  1830 shell-pairs
 PRISM was handed    33498274 working-precision words and  1830 shell-pairs
 PRISM was handed    33498274 working-precision words and  1830 shell-pairs
 PRISM was handed    33498274 working-precision words and  1830 shell-pairs
 PRISM was handed    33498274 working-precision words and  1830 shell-pairs
 PRISM was handed    33498274 working-precision words and  1830 shell-pairs
 PRISM was handed    33498274 working-precision words and  1830 shell-pairs
 PRISM was handed    33498274 working-precision words and  1830 shell-pairs
 IPart=  7 NShTot=          95 NBatch=          24 AvBLen=         4.0
 IPart=  5 NShTot=         100 NBatch=          28 AvBLen=         3.6
 IPart=  9 NShTot=          88 NBatch=          21 AvBLen=         4.2
 IPart=  2 NShTot=         117 NBatch=          45 AvBLen=         2.6
 IPart=  3 NShTot=         109 NBatch=          37 AvBLen=         2.9
 IPart=  8 NShTot=          91 NBatch=          24 AvBLen=         3.8
 IPart=  6 NShTot=          95 NBatch=          24 AvBLen=         4.0
 IPart=  4 NShTot=         103 NBatch=          31 AvBLen=         3.3
 IPart= 10 NShTot=          85 NBatch=          21 AvBLen=         4.0
 IPart= 12 NShTot=          85 NBatch=          21 AvBLen=         4.0
 IPart= 13 NShTot=          80 NBatch=          21 AvBLen=         3.8
 IPart= 16 NShTot=          73 NBatch=          20 AvBLen=         3.7
 IPart=  1 NShTot=         119 NBatch=          47 AvBLen=         2.5
 IPart= 14 NShTot=          79 NBatch=          21 AvBLen=         3.8
 IPart= 11 NShTot=          85 NBatch=          21 AvBLen=         4.0
 IPart= 19 NShTot=          73 NBatch=          20 AvBLen=         3.7
 IPart=  0 NShTot=         129 NBatch=          57 AvBLen=         2.3
 IPart= 17 NShTot=          73 NBatch=          20 AvBLen=         3.7
 IPart= 18 NShTot=          73 NBatch=          20 AvBLen=         3.7
 IPart= 15 NShTot=          78 NBatch=          20 AvBLen=         3.9
 PrSmSu:  NxtVal=             21.
 Entering OneElI...
 Calculate potential energy integrals
    NBasis = 180  MinDer = 2  MaxDer = 2
 Requested accuracy = 0.1000D-12
 PrmmSu-InSpLW:  IPartL=    0 NPrtUS=   20 NPrtUL=    1 DoSpLW=F IThBeg=    0 IThEnd=   19 NThAct=   20.
 PrsmSu:  NPrtUS=  20 ThrOK=T IAlg=1 NPAlg=1 LenDen=           0 ISkipM=0 DoSpLW=F IThBeg=    0 IThEnd=   19.
 Prism:   IPart=     0 DynPar=F LinDyn=F Incr=           7.
 PRISM was handed    33503256 working-precision words and  1819 shell-pairs
 PRISM was handed    33503256 working-precision words and  1819 shell-pairs
 PRISM was handed    33503256 working-precision words and  1819 shell-pairs
 PRISM was handed    33503256 working-precision words and  1819 shell-pairs
 PRISM was handed    33503256 working-precision words and  1819 shell-pairs
 PRISM was handed    33503256 working-precision words and  1819 shell-pairs
 PRISM was handed    33503256 working-precision words and  1819 shell-pairs
 PRISM was handed    33503256 working-precision words and  1819 shell-pairs
 PRISM was handed    33503256 working-precision words and  1819 shell-pairs
 PRISM was handed    33503256 working-precision words and  1819 shell-pairs
 PRISM was handed    33503256 working-precision words and  1819 shell-pairs
 PRISM was handed    33503256 working-precision words and  1819 shell-pairs
 PRISM was handed    33503256 working-precision words and  1819 shell-pairs
 PRISM was handed    33503256 working-precision words and  1819 shell-pairs
 PRISM was handed    33503256 working-precision words and  1819 shell-pairs
 PRISM was handed    33503256 working-precision words and  1819 shell-pairs
 PRISM was handed    33503256 working-precision words and  1819 shell-pairs
 PRISM was handed    33503256 working-precision words and  1819 shell-pairs
 PRISM was handed    33503256 working-precision words and  1819 shell-pairs
 PRISM was handed    33503256 working-precision words and  1819 shell-pairs
 IPart= 13 NShTot=         640 NBatch=          80 AvBLen=         8.0
 IPart= 10 NShTot=         672 NBatch=          84 AvBLen=         8.0
 IPart= 16 NShTot=         616 NBatch=          77 AvBLen=         8.0
 IPart= 12 NShTot=         648 NBatch=          81 AvBLen=         8.0
 IPart=  8 NShTot=         720 NBatch=          90 AvBLen=         8.0
 IPart=  6 NShTot=         768 NBatch=          96 AvBLen=         8.0
 IPart=  7 NShTot=         736 NBatch=          92 AvBLen=         8.0
 IPart=  9 NShTot=         680 NBatch=          85 AvBLen=         8.0
 IPart=  4 NShTot=         816 NBatch=         102 AvBLen=         8.0
 IPart=  3 NShTot=         832 NBatch=         104 AvBLen=         8.0
 IPart=  2 NShTot=         904 NBatch=         113 AvBLen=         8.0
 IPart=  5 NShTot=         816 NBatch=         102 AvBLen=         8.0
 IPart= 19 NShTot=         600 NBatch=          75 AvBLen=         8.0
 IPart= 14 NShTot=         632 NBatch=          79 AvBLen=         8.0
 IPart= 18 NShTot=         608 NBatch=          76 AvBLen=         8.0
 IPart= 15 NShTot=         624 NBatch=          78 AvBLen=         8.0
 IPart= 11 NShTot=         648 NBatch=          81 AvBLen=         8.0
 IPart= 17 NShTot=         608 NBatch=          76 AvBLen=         8.0
 IPart=  0 NShTot=        1056 NBatch=         132 AvBLen=         8.0
 IPart=  1 NShTot=         928 NBatch=         116 AvBLen=         8.0
 PrSmSu:  NxtVal=            141.
 Polarizability after L701:
                1             2             3 
      1  0.000000D+00
      2  0.000000D+00  0.000000D+00
      3  0.000000D+00  0.000000D+00  0.000000D+00
 Dipole Derivatives after L701:
                 1             2             3             4             5 
      1  -0.116123D+00  0.406698D+00 -0.269706D+00 -0.332285D+00  0.918798D-01
      2  -0.539064D-01 -0.863614D+00  0.328004D+00 -0.611139D-02 -0.614978D+00
      3  -0.355581D-01  0.298371D+00 -0.561015D+00  0.137878D-01 -0.719735D-01
                 6             7             8             9            10 
      1   0.213390D-01 -0.112637D+01 -0.185579D+00  0.519293D+00  0.141459D+00
      2  -0.559710D-01  0.117801D+00 -0.925654D+00  0.284399D-01  0.113148D-02
      3  -0.654623D+00  0.205807D+00 -0.684319D-01 -0.244239D+00  0.309143D-01
                11            12            13            14            15 
      1  -0.200006D-01  0.167119D-01  0.148588D+00  0.219835D-02 -0.504888D-01
      2   0.297344D+00  0.263253D+00  0.123208D-01  0.473094D+00 -0.294163D+00
      3   0.154302D+00  0.417353D+00 -0.466549D-01 -0.205970D+00  0.374306D+00
                16            17            18            19            20 
      1   0.160861D+00  0.476888D+00 -0.787615D-01  0.903571D+00 -0.333050D+00
      2   0.159428D-02  0.763343D+00 -0.452090D-01 -0.106556D+00  0.185330D+00
      3  -0.576164D-02  0.500079D-01  0.919738D-01 -0.124694D+00  0.615075D-01
                21            22            23            24 
      1  -0.401505D+00  0.220298D+00 -0.439035D+00  0.243117D+00
      2   0.495500D-01  0.337265D-01  0.685135D+00 -0.273903D+00
      3   0.153314D+00 -0.378404D-01 -0.217814D+00  0.422930D+00
 Hessian after L701:
                1             2             3             4             5 
      1  0.500525D+01
      2  0.296413D+01  0.621714D+01
      3  0.476367D+00  0.173879D+01  0.100165D+02
      4 -0.102430D+01 -0.362240D+01 -0.364007D+00  0.782394D+01
      5 -0.365915D+01 -0.408961D+01  0.166748D+00  0.187881D+01  0.115196D+02
      6 -0.328490D+00  0.152778D+00 -0.668103D+01  0.174968D+00 -0.335599D+00
      7  0.616655D+00  0.232457D+00  0.648025D-01 -0.889445D+00  0.187495D+01
      8  0.902218D-01 -0.318028D+00  0.199896D-01  0.186794D+01 -0.342716D+01
      9  0.907481D-01  0.230771D-01 -0.246082D+00  0.359916D+00  0.183377D+00
     10 -0.147928D+00  0.152516D+00 -0.300432D-02 -0.300340D+01 -0.776788D-01
     11  0.155303D+00  0.485451D-01  0.147686D+00 -0.838325D-01 -0.226331D+01
     12  0.701669D-02  0.115619D+00  0.334557D+00 -0.894472D-01  0.963623D+00
     13 -0.112145D+00  0.144809D+00  0.516853D-01 -0.295769D+01  0.421755D-01
     14  0.858839D-01 -0.788999D-01 -0.172500D+00  0.857389D-01 -0.178657D+01
     15  0.853066D-01 -0.151471D+00  0.189079D+00 -0.830896D-01 -0.989282D+00
     16  0.570662D-01  0.500556D-01 -0.205703D-01  0.163621D-01 -0.870070D-01
     17  0.104500D+00  0.143758D-01 -0.139121D-01 -0.382159D-01 -0.194937D-01
     18 -0.208768D-01 -0.603456D-02 -0.553961D-01 -0.536800D-02 -0.243353D-02
     19  0.125588D+00 -0.296928D-01 -0.376041D-01 -0.578153D-01 -0.145460D-01
     20 -0.392498D-01 -0.339874D-01  0.893061D-02 -0.134301D-01  0.561411D-01
     21 -0.425221D-01  0.574180D-02 -0.304353D-01 -0.133122D-01  0.808989D-02
     22 -0.452019D+01  0.108123D+00 -0.167668D+00  0.923398D-01  0.424519D-01
     23  0.298358D+00 -0.175954D+01 -0.189573D+01 -0.746095D-01  0.104333D-01
     24 -0.267549D+00 -0.187850D+01 -0.352719D+01  0.203404D-01  0.547591D-02
                6             7             8             9            10 
      6  0.144936D+02
      7  0.308794D+00  0.422830D+01
      8  0.167094D+00 -0.131317D+01  0.669841D+01
      9 -0.440011D+01  0.262187D+00 -0.249209D+00  0.945051D+01
     10 -0.887249D-01  0.166507D-01 -0.792587D-01 -0.408295D-01  0.292471D+01
     11  0.100288D+01 -0.100717D+00 -0.975374D-02 -0.298956D-01 -0.535184D-01
     12 -0.153110D+01 -0.657355D-01 -0.465273D-01  0.105881D+00  0.835143D-01
     13 -0.421138D-01 -0.114362D-01 -0.322597D-01 -0.755415D-02  0.194860D+00
     14 -0.104329D+01 -0.197616D-01  0.313104D-01 -0.464472D-01 -0.668876D-02
     15 -0.200194D+01 -0.862206D-02 -0.422207D-01  0.788222D-01  0.339380D-01
     16  0.909862D-02 -0.270176D+01  0.724642D-01 -0.651694D-02 -0.495167D-02
     17  0.165039D-01 -0.709675D-01 -0.677354D+00 -0.162390D+00  0.195199D-01
     18  0.425357D-01  0.621000D-02 -0.123891D+00 -0.269249D+01  0.693034D-02
     19  0.842348D-02 -0.128604D+01 -0.620798D+00 -0.652973D+00  0.208075D-01
     20  0.968371D-02 -0.576594D+00 -0.227750D+01  0.286496D+00  0.735041D-02
     21  0.260256D-01 -0.596142D+00  0.283187D+00 -0.227500D+01  0.478934D-02
     22 -0.419560D-01  0.270755D-01  0.148533D-01 -0.497703D-02 -0.757085D-03
     23  0.299478D-01 -0.261982D-01 -0.199256D-01 -0.500832D-02  0.377587D-01
     24  0.520282D-01  0.285061D-01 -0.842179D-02 -0.215363D-01  0.338679D-02
               11            12            13            14            15 
     11  0.202101D+01
     12 -0.115390D+01  0.145681D+01
     13 -0.594988D-03  0.228909D-01  0.289889D+01
     14  0.211647D+00  0.954161D-01 -0.133900D+00  0.149752D+01
     15  0.239333D-01 -0.369342D+00 -0.341404D-01  0.125434D+01  0.209302D+01
     16  0.218306D-01  0.118730D-01 -0.391855D-02  0.166160D-01 -0.706339D-02
     17  0.378638D-01  0.291980D-01  0.151134D-01  0.361838D-01 -0.179387D-01
     18  0.158977D-01 -0.615246D-02 -0.362058D-02 -0.103918D-01 -0.548921D-02
     19  0.215068D-01  0.202944D-01  0.102540D-01  0.149544D-01 -0.134608D-01
     20 -0.612953D-02  0.296594D-02  0.418697D-02 -0.383979D-02 -0.128194D-02
     21  0.318032D-02 -0.841772D-02 -0.895222D-02 -0.864170D-02  0.266428D-02
     22  0.400223D-01  0.959333D-02 -0.188156D-01 -0.428432D-01  0.271317D-01
     23 -0.398753D-01 -0.639425D-02 -0.395302D-01  0.926429D-01 -0.760767D-01
     24 -0.978186D-02  0.177630D-01  0.218050D-01 -0.684842D-01  0.131906D-01
               16            17            18            19            20 
     16  0.258943D+01
     17 -0.210199D+00  0.768895D+00
     18 -0.302220D-01  0.191183D+00  0.265206D+01
     19  0.172019D-01  0.163198D+00  0.384478D-01  0.116349D+01
     20  0.141703D+00 -0.134027D+00 -0.647210D-01  0.479877D+00  0.239712D+01
     21  0.267205D-01 -0.550113D-01  0.780405D-01  0.630210D+00 -0.239530D+00
     22  0.305763D-01  0.170522D-01  0.849930D-02  0.650756D-02 -0.384469D-02
     23 -0.546368D-02 -0.264437D-01  0.391698D-03 -0.144997D-01  0.222377D-02
     24  0.166805D-01  0.123680D-01 -0.131077D-01  0.666267D-02 -0.254295D-02
               21            22            23            24 
     21  0.221131D+01
     22 -0.791226D-03  0.438326D+01
     23  0.298473D-02 -0.175815D+00  0.174049D+01
     24 -0.419073D-02  0.170168D+00  0.194989D+01  0.348305D+01
 Leave Link  701 at Wed May 22 18:34:57 2019, MaxMem=   671088640 cpu:               6.0 elap:               0.3
 (Enter /shared/centos7/gaussian/g16/l702.exe)
 L702 exits ... SP integral derivatives will be done elsewhere.
 Leave Link  702 at Wed May 22 18:34:57 2019, MaxMem=   671088640 cpu:               0.4 elap:               0.0
 (Enter /shared/centos7/gaussian/g16/l703.exe)
 Integral derivatives from FoFJK, PRISM(SPDF).
 Compute integral second derivatives, UseDBF=F ICtDFT=           0.
 ICntrl=    100147.
 Calling FoFJK, ICntrl=    100147 FMM=F ISym2X=0 I1Cent= 0 IOpClX= 1 NMat=1 NMatS=1 NMatT=0.
 FoFJK:  IHMeth= 1 ICntrl=  100147 DoSepK=F KAlg= 0 I1Cent=           0 FoldK=F
 IRaf=         0 NMat=       1 IRICut=       1 DoRegI=T DoRafI=F ISym2E= 0 IDoP0=0 IntGTp=1.
 FoFCou: FMM=F IPFlag=           0 FMFlag=      100000 FMFlg1=         800
         NFxFlg=           0 DoJE=F BraDBF=F KetDBF=F FulRan=T
         wScrn=  0.000000 ICntrl=    100147 IOpCl=  1 I1Cent=           0 NGrid=           0
         NMat0=    1 NMatS0=      1 NMatT0=    0 NMatD0=    1 NMtDS0=    0 NMtDT0=    0
 Symmetry not used in FoFCou.
 FoFCou:  KetSym=F NOpSet=  1 NOpAb=1 NOp=  1.
 FoFCou:  CnvScl= 1.00D+00 Thresh= 1.00D-08 IAcrcy=      12.
 PrismS was handed   670881491 working-precision words and  1827 shell-pairs
 FoFCou: LinMIO=F DoNuc=F BraDBF=F KetDBF=F HaveP=T PDBF=F HaveZ=T HaveW=F
         NIJTC =      10 NIJTAt=       0 NIJTCD=       0 NIJTT =      10
         IJTBeg=       1 IJTEnd=      10 KLTBeg=       1 KLTEnd=      10
         IPTBeg=       1 IPTEnd=      10 IPTBCv=       1 IPTECv=      10
         IZTBeg=       1 IZTEnd=      10 IZTBCv=       1 IZTECv=      10
         IWTBeg=      11 IWTEnd=      10 IWTBCv=      11 IWTECv=      10
         INTBeg=       1 INTEnd=       0 IFTBCv=       1 IFTECv=      10
 NCel replicated for PrismC:     1
 CoulSu-InSpLW:  IPartL=    0 NPrtUS=   20 NPrtUL=    1 DoSpLW=F IThBeg=    0 IThEnd=   19 NThAct=   20.
 CoulSu:  IncDef=  1024 NBBP=        1669878 NTPThr=   100 NPartT=   20 Incr=         834 LDynOK=F GPUOK=T.
 CoulSu:  NPrtUS=  20 ThrOK=T IAlg=1 NPAlg=1 LenDen=           0 LWGrdD=           0 DoCopy=F ISkipM=0
          DoSpLW=F IThBeg=    0 IThEnd=   19.
 Enter PrismC:  IPart=  0 JobTyp=22 DoJE=F Cont=F.
 PrismC:  IPart=     0 DynPar=T LinDyn=F Incr=         834 UseFst=F UseS4=T ISplat=2.
 PrismC was handed    33502918 working-precision words and  1827 shell-pairs
 Enter PrismC:  IPart=  8 JobTyp=22 DoJE=F Cont=F.
 Enter PrismC:  IPart=  4 JobTyp=22 DoJE=F Cont=F.
 PrismC:  IPart=     8 DynPar=T LinDyn=F Incr=         834 UseFst=F UseS4=T ISplat=2.
 PrismC was handed    33502918 working-precision words and  1827 shell-pairs
 PrismC:  IPart=     4 DynPar=T LinDyn=F Incr=         834 UseFst=F UseS4=T ISplat=2.
 PrismC was handed    33502918 working-precision words and  1827 shell-pairs
 Enter PrismC:  IPart=  5 JobTyp=22 DoJE=F Cont=F.
 Enter PrismC:  IPart= 18 JobTyp=22 DoJE=F Cont=F.
 Enter PrismC:  IPart= 14 JobTyp=22 DoJE=F Cont=F.
 PrismC:  IPart=     5 DynPar=T LinDyn=F Incr=         834 UseFst=F UseS4=T ISplat=2.
 Enter PrismC:  IPart=  3 JobTyp=22 DoJE=F Cont=F.
 PrismC:  IPart=    18 DynPar=T LinDyn=F Incr=         834 UseFst=F UseS4=T ISplat=2.
 PrismC:  IPart=    14 DynPar=T LinDyn=F Incr=         834 UseFst=F UseS4=T ISplat=2.
 PrismC:  IPart=     3 DynPar=T LinDyn=F Incr=         834 UseFst=F UseS4=T ISplat=2.
 Enter PrismC:  IPart=  1 JobTyp=22 DoJE=F Cont=F.
 Enter PrismC:  IPart=  7 JobTyp=22 DoJE=F Cont=F.
 PrismC was handed    33502918 working-precision words and  1827 shell-pairs
 Enter PrismC:  IPart=  9 JobTyp=22 DoJE=F Cont=F.
 PrismC was handed    33502918 working-precision words and  1827 shell-pairs
 Enter PrismC:  IPart=  2 JobTyp=22 DoJE=F Cont=F.
 PrismC was handed    33502918 working-precision words and  1827 shell-pairs
 PrismC:  IPart=     1 DynPar=T LinDyn=F Incr=         834 UseFst=F UseS4=T ISplat=2.
 PrismC was handed    33502918 working-precision words and  1827 shell-pairs
 PrismC:  IPart=     7 DynPar=T LinDyn=F Incr=         834 UseFst=F UseS4=T ISplat=2.
 PrismC was handed    33502918 working-precision words and  1827 shell-pairs
 Enter PrismC:  IPart= 15 JobTyp=22 DoJE=F Cont=F.
 PrismC:  IPart=     2 DynPar=T LinDyn=F Incr=         834 UseFst=F UseS4=T ISplat=2.
 Enter PrismC:  IPart= 17 JobTyp=22 DoJE=F Cont=F.
 PrismC was handed    33502918 working-precision words and  1827 shell-pairs
 PrismC:  IPart=     9 DynPar=T LinDyn=F Incr=         834 UseFst=F UseS4=T ISplat=2.
 PrismC was handed    33502918 working-precision words and  1827 shell-pairs
 Enter PrismC:  IPart=  6 JobTyp=22 DoJE=F Cont=F.
 Enter PrismC:  IPart= 13 JobTyp=22 DoJE=F Cont=F.
 PrismC was handed    33502918 working-precision words and  1827 shell-pairs
 PrismC:  IPart=    15 DynPar=T LinDyn=F Incr=         834 UseFst=F UseS4=T ISplat=2.
 PrismC was handed    33502918 working-precision words and  1827 shell-pairs
 PrismC:  IPart=    17 DynPar=T LinDyn=F Incr=         834 UseFst=F UseS4=T ISplat=2.
 PrismC:  IPart=     6 DynPar=T LinDyn=F Incr=         834 UseFst=F UseS4=T ISplat=2.
 Enter PrismC:  IPart= 19 JobTyp=22 DoJE=F Cont=F.
 PrismC was handed    33502918 working-precision words and  1827 shell-pairs
 PrismC was handed    33502918 working-precision words and  1827 shell-pairs
 PrismC:  IPart=    19 DynPar=T LinDyn=F Incr=         834 UseFst=F UseS4=T ISplat=2.
 PrismC was handed    33502918 working-precision words and  1827 shell-pairs
 Enter PrismC:  IPart= 11 JobTyp=22 DoJE=F Cont=F.
 Enter PrismC:  IPart= 12 JobTyp=22 DoJE=F Cont=F.
 PrismC:  IPart=    13 DynPar=T LinDyn=F Incr=         834 UseFst=F UseS4=T ISplat=2.
 PrismC was handed    33502918 working-precision words and  1827 shell-pairs
 PrismC:  IPart=    11 DynPar=T LinDyn=F Incr=         834 UseFst=F UseS4=T ISplat=2.
 PrismC was handed    33502918 working-precision words and  1827 shell-pairs
 PrismC:  IPart=    12 DynPar=T LinDyn=F Incr=         834 UseFst=F UseS4=T ISplat=2.
 PrismC was handed    33502918 working-precision words and  1827 shell-pairs
 Enter PrismC:  IPart= 16 JobTyp=22 DoJE=F Cont=F.
 Enter PrismC:  IPart= 10 JobTyp=22 DoJE=F Cont=F.
 PrismC:  IPart=    16 DynPar=T LinDyn=F Incr=         834 UseFst=F UseS4=T ISplat=2.
 PrismC:  IPart=    10 DynPar=T LinDyn=F Incr=         834 UseFst=F UseS4=T ISplat=2.
 PrismC was handed    33502918 working-precision words and  1827 shell-pairs
 PrismC was handed    33502918 working-precision words and  1827 shell-pairs
 IPart= 14 NShTot=       86838 NShNF=       86838 NShFF=           0 MinMC=       7
           NShCPU=       86838 NBCPU=        3474 AvBCPU=        25.0
           NShGPU=           0 NBGPU=           0 AvBGPU=         0.0
 IPart=  8 NShTot=       79713 NShNF=       79713 NShFF=           0 MinMC=       7
           NShCPU=       79713 NBCPU=        3913 AvBCPU=        20.4
           NShGPU=           0 NBGPU=           0 AvBGPU=         0.0
 IPart= 17 NShTot=       83891 NShNF=       83891 NShFF=           0 MinMC=       7
           NShCPU=       83891 NBCPU=        3860 AvBCPU=        21.7
           NShGPU=           0 NBGPU=           0 AvBGPU=         0.0
 IPart=  3 NShTot=      104905 NShNF=      104905 NShFF=           0 MinMC=       7
           NShCPU=      104905 NBCPU=        4152 AvBCPU=        25.3
           NShGPU=           0 NBGPU=           0 AvBGPU=         0.0
 IPart=  5 NShTot=      101751 NShNF=      101751 NShFF=           0 MinMC=       7
           NShCPU=      101751 NBCPU=        4307 AvBCPU=        23.6
           NShGPU=           0 NBGPU=           0 AvBGPU=         0.0
 IPart=  2 NShTot=       97919 NShNF=       97919 NShFF=           0 MinMC=       7
           NShCPU=       97919 NBCPU=        4420 AvBCPU=        22.2
           NShGPU=           0 NBGPU=           0 AvBGPU=         0.0
 IPart= 19 NShTot=       80238 NShNF=       80238 NShFF=           0 MinMC=       7
           NShCPU=       80238 NBCPU=        3866 AvBCPU=        20.8
           NShGPU=           0 NBGPU=           0 AvBGPU=         0.0
 IPart=  0 NShTot=       85183 NShNF=       85183 NShFF=           0 MinMC=       7
           NShCPU=       85183 NBCPU=        3869 AvBCPU=        22.0
           NShGPU=           0 NBGPU=           0 AvBGPU=         0.0
 IPart= 16 NShTot=       40098 NShNF=       40098 NShFF=           0 MinMC=       7
           NShCPU=       40098 NBCPU=        1543 AvBCPU=        26.0
           NShGPU=           0 NBGPU=           0 AvBGPU=         0.0
 IPart=  9 NShTot=       46781 NShNF=       46781 NShFF=           0 MinMC=       7
           NShCPU=       46781 NBCPU=        1755 AvBCPU=        26.7
           NShGPU=           0 NBGPU=           0 AvBGPU=         0.0
 IPart=  1 NShTot=       55775 NShNF=       55775 NShFF=           0 MinMC=       7
           NShCPU=       55775 NBCPU=        2246 AvBCPU=        24.8
           NShGPU=           0 NBGPU=           0 AvBGPU=         0.0
 IPart=  4 NShTot=       43321 NShNF=       43321 NShFF=           0 MinMC=       7
           NShCPU=       43321 NBCPU=        1582 AvBCPU=        27.4
           NShGPU=           0 NBGPU=           0 AvBGPU=         0.0
 IPart= 18 NShTot=       89597 NShNF=       89597 NShFF=           0 MinMC=       7
           NShCPU=       89597 NBCPU=        3987 AvBCPU=        22.5
           NShGPU=           0 NBGPU=           0 AvBGPU=         0.0
 IPart=  6 NShTot=       83547 NShNF=       83547 NShFF=           0 MinMC=       7
           NShCPU=       83547 NBCPU=        3815 AvBCPU=        21.9
           NShGPU=           0 NBGPU=           0 AvBGPU=         0.0
 IPart= 13 NShTot=       89686 NShNF=       89686 NShFF=           0 MinMC=       7
           NShCPU=       89686 NBCPU=        3703 AvBCPU=        24.2
           NShGPU=           0 NBGPU=           0 AvBGPU=         0.0
 IPart=  7 NShTot=       39502 NShNF=       39502 NShFF=           0 MinMC=       7
           NShCPU=       39502 NBCPU=        1648 AvBCPU=        24.0
           NShGPU=           0 NBGPU=           0 AvBGPU=         0.0
 IPart= 10 NShTot=       38649 NShNF=       38649 NShFF=           0 MinMC=       7
           NShCPU=       38649 NBCPU=        1551 AvBCPU=        24.9
           NShGPU=           0 NBGPU=           0 AvBGPU=         0.0
 IPart= 11 NShTot=       42586 NShNF=       42586 NShFF=           0 MinMC=       7
           NShCPU=       42586 NBCPU=        1696 AvBCPU=        25.1
           NShGPU=           0 NBGPU=           0 AvBGPU=         0.0
 IPart= 12 NShTot=       85324 NShNF=       85324 NShFF=           0 MinMC=       7
           NShCPU=       85324 NBCPU=        3655 AvBCPU=        23.3
           NShGPU=           0 NBGPU=           0 AvBGPU=         0.0
 IPart= 15 NShTot=       46551 NShNF=       46551 NShFF=           0 MinMC=       7
           NShCPU=       46551 NBCPU=        2077 AvBCPU=        22.4
           NShGPU=           0 NBGPU=           0 AvBGPU=         0.0
 CoulSu:  NxtVal=        1793935 LenVP=       33502919 MinMC=       7.
 ReadGW:  IGet=0 IStart=           1 Next=           1 LGW=           0.
 Remaining memory in FofDFT      639.94 Mw
 CkSvGd:  ISavGI=        -1 IRadAn=       5 IRASav=       5 ISavGd=        -1.
 CalDSu-InSpLW:  IPartL=    0 NPrtUS=   20 NPrtUL=    1 DoSpLW=F IThBeg=    0 IThEnd=   19 NThAct=   20.
 CalDSu:  NPrtUS=  20 ThrOK=T IAlg=1 NPAlg=2 DoDPD=T LenP=       16290 LenD1P=             0 GPUOK=F
          ISkipM=0 DoSpLW=F IThBeg=    0 IThEnd=   19.
 IPart=  0 IRanGd=          0 ScrnBf=T ScrnGd=T RCrit=4.00D+00 DoMicB=T.
 IPart=  9         8595 of         9496 points in      10 batches and       43 microbatches, Max-NSigAt=       8 Max-NSgAt2=       8
 IPart= 17         8495 of         9110 points in       7 batches and       38 microbatches, Max-NSigAt=       8 Max-NSgAt2=       8
 IPart= 13         8186 of         8422 points in       6 batches and       25 microbatches, Max-NSigAt=       8 Max-NSgAt2=       8
 IPart=  3         9769 of        10100 points in       8 batches and       33 microbatches, Max-NSigAt=       8 Max-NSgAt2=       8
 IPart= 11         8519 of         9264 points in       9 batches and       51 microbatches, Max-NSigAt=       8 Max-NSgAt2=       8
 IPart= 16         8529 of         9340 points in       9 batches and       65 microbatches, Max-NSigAt=       8 Max-NSgAt2=       8
 IPart=  8         7536 of         8190 points in       7 batches and       27 microbatches, Max-NSigAt=       8 Max-NSgAt2=       8
 IPart=  1         4517 of         4734 points in       5 batches and       25 microbatches, Max-NSigAt=       8 Max-NSgAt2=       8
 IPart=  7         8683 of        10030 points in      11 batches and       91 microbatches, Max-NSigAt=       8 Max-NSgAt2=       8
 IPart= 15         8554 of         9348 points in       9 batches and       76 microbatches, Max-NSigAt=       8 Max-NSgAt2=       8
 IPart=  4         9032 of         9532 points in       7 batches and       42 microbatches, Max-NSigAt=       8 Max-NSgAt2=       8
 IPart= 14         6228 of         6532 points in       7 batches and       39 microbatches, Max-NSigAt=       8 Max-NSgAt2=       8
 IPart=  2         8240 of         8646 points in       8 batches and       39 microbatches, Max-NSigAt=       8 Max-NSgAt2=       8
 IPart= 18         8224 of         8892 points in       9 batches and       66 microbatches, Max-NSigAt=       8 Max-NSgAt2=       8
 IPart= 12         8114 of         8632 points in       8 batches and       52 microbatches, Max-NSigAt=       8 Max-NSgAt2=       8
 IPart=  5         9009 of         9524 points in       8 batches and       49 microbatches, Max-NSigAt=       8 Max-NSgAt2=       8
 IPart=  6         9007 of         9600 points in       8 batches and       71 microbatches, Max-NSigAt=       8 Max-NSgAt2=       8
 IPart= 10         5212 of         5724 points in       6 batches and       44 microbatches, Max-NSigAt=       8 Max-NSgAt2=       8
 IPart= 19         8922 of         9580 points in       8 batches and       67 microbatches, Max-NSigAt=       8 Max-NSgAt2=       8
 IPart=  0        11317 of        13218 points in      12 batches and       46 microbatches, Max-NSigAt=       8 Max-NSgAt2=       8
 Polarizability after L703:
                1             2             3 
      1  0.000000D+00
      2  0.000000D+00  0.000000D+00
      3  0.000000D+00  0.000000D+00  0.000000D+00
 Dipole Derivatives after L703:
                 1             2             3             4             5 
      1  -0.116123D+00  0.406698D+00 -0.269706D+00 -0.332285D+00  0.918798D-01
      2  -0.539064D-01 -0.863614D+00  0.328004D+00 -0.611139D-02 -0.614978D+00
      3  -0.355581D-01  0.298371D+00 -0.561015D+00  0.137878D-01 -0.719735D-01
                 6             7             8             9            10 
      1   0.213390D-01 -0.112637D+01 -0.185579D+00  0.519293D+00  0.141459D+00
      2  -0.559710D-01  0.117801D+00 -0.925654D+00  0.284399D-01  0.113148D-02
      3  -0.654623D+00  0.205807D+00 -0.684319D-01 -0.244239D+00  0.309143D-01
                11            12            13            14            15 
      1  -0.200006D-01  0.167119D-01  0.148588D+00  0.219835D-02 -0.504888D-01
      2   0.297344D+00  0.263253D+00  0.123208D-01  0.473094D+00 -0.294163D+00
      3   0.154302D+00  0.417353D+00 -0.466549D-01 -0.205970D+00  0.374306D+00
                16            17            18            19            20 
      1   0.160861D+00  0.476888D+00 -0.787615D-01  0.903571D+00 -0.333050D+00
      2   0.159428D-02  0.763343D+00 -0.452090D-01 -0.106556D+00  0.185330D+00
      3  -0.576164D-02  0.500079D-01  0.919738D-01 -0.124694D+00  0.615075D-01
                21            22            23            24 
      1  -0.401505D+00  0.220298D+00 -0.439035D+00  0.243117D+00
      2   0.495500D-01  0.337265D-01  0.685135D+00 -0.273903D+00
      3   0.153314D+00 -0.378404D-01 -0.217814D+00  0.422930D+00
 Hessian after L703:
                1             2             3             4             5 
      1  0.324274D+00
      2 -0.863102D-01  0.455022D+00
      3 -0.795225D-01 -0.200676D+00  0.225110D+00
      4 -0.203022D+00  0.108623D+00  0.102768D-01  0.458736D+00
      5  0.692037D-01 -0.141435D+00  0.105050D-01 -0.367929D-01  0.530571D+00
      6  0.310187D-01 -0.372772D-02 -0.737075D-01 -0.149215D-01 -0.125100D-01
      7 -0.439787D-01 -0.917276D-02 -0.832357D-03 -0.149935D+00 -0.344993D-01
      8  0.269434D-01  0.766494D-02  0.257581D-02 -0.596026D-01 -0.120519D+00
      9  0.542893D-02  0.244644D-02  0.377495D-02  0.265001D-02 -0.749775D-02
     10 -0.137841D-01  0.266456D-01  0.275271D-01 -0.454118D-01 -0.400306D-02
     11  0.143984D-01 -0.151000D-01 -0.169408D-01 -0.269309D-03 -0.997448D-01
     12  0.740403D-02 -0.438995D-02  0.628196D-02 -0.289146D-02 -0.963712D-01
     13 -0.347441D-02  0.289431D-01 -0.222374D-01 -0.508727D-01 -0.195857D-01
     14  0.621585D-02 -0.209884D-01  0.152106D-01 -0.689588D-02 -0.144829D+00
     15 -0.242305D-02 -0.786726D-03  0.553401D-02  0.102184D-01  0.111191D+00
     16  0.422495D-02  0.624209D-03  0.727088D-03  0.298851D-02 -0.231868D-01
     17  0.624079D-03  0.374766D-02 -0.218410D-03  0.675096D-02 -0.103736D-01
     18  0.646823D-03 -0.729454D-03 -0.650396D-03 -0.205447D-02 -0.182803D-02
     19 -0.613105D-02 -0.211490D-02 -0.745983D-03 -0.101567D-01  0.141221D-01
     20 -0.394591D-02 -0.198967D-03  0.841385D-04 -0.104282D-01  0.102965D-01
     21 -0.167656D-02  0.153266D-03  0.123906D-02 -0.493782D-02 -0.109405D-02
     22 -0.581084D-01 -0.672382D-01  0.648072D-01 -0.232595D-02  0.347419D-01
     23 -0.271293D-01 -0.288712D+00  0.189459D+00 -0.138523D-02 -0.239663D-01
     24  0.391236D-01  0.207710D+00 -0.167582D+00  0.166002D-02 -0.239461D-02
                6             7             8             9            10 
      6  0.520176D+00
      7 -0.155776D-01  0.488103D+00
      8 -0.169076D-01 -0.381584D-01  0.556614D+00
      9 -0.530455D-01 -0.949247D-01  0.572542D-01  0.121831D+00
[...]
     21 -0.229192D-03 -0.175394D-02  0.218555D-02  0.186124D-02 -0.414883D-02
     22  0.371889D-03 -0.174659D-02  0.190806D-02  0.180566D-02 -0.439434D-02
     23 -0.158326D-01  0.889630D-03 -0.519170D-03  0.102956D-02  0.399700D-02
     24 -0.152315D-01  0.896980D-03 -0.796665D-03  0.973977D-03  0.375148D-02
     25  0.184140D-01  0.927728D-03 -0.254110D-03 -0.450093D-02 -0.307883D-03
     26  0.190151D-01  0.935079D-03 -0.531605D-03 -0.455651D-02 -0.553400D-03
                6             7             8             9            10 
      6  0.366185D+00
      7  0.428247D-03  0.368643D+00
      8  0.701766D-03 -0.319109D-03  0.181867D+00
      9 -0.426376D-02  0.549947D-02 -0.947646D-02  0.157685D+00
     10  0.232635D-04 -0.168107D-02 -0.312315D-03 -0.571570D-01  0.748629D-01
     11  0.957667D-03 -0.182192D-02  0.142030D-01 -0.564544D-01  0.535688D-02
     12  0.437421D-02 -0.194943D-02  0.327691D-02 -0.441700D-01 -0.288310D-01
     13  0.682496D-04 -0.453652D-03 -0.456157D-02 -0.296014D-01  0.169584D-01
     14 -0.120829D-02  0.134061D-03 -0.246727D-02  0.217347D-01 -0.594203D-02
     15  0.555061D-02 -0.992070D-02  0.687680D-03 -0.177241D-01  0.140394D-02
     16 -0.993168D-02  0.462836D-02 -0.969698D-03  0.176651D-01 -0.268860D-02
     17  0.461770D-02  0.549585D-02  0.251529D-03 -0.878173D-04  0.126970D-02
     18 -0.177018D-02  0.589524D-03  0.848535D-03 -0.636642D-03  0.582724D-02
     19  0.805943D-03  0.870795D-03 -0.221788D-02  0.160108D-01 -0.176990D-01
     20 -0.727716D-04 -0.773612D-03  0.256186D-02 -0.167294D-01  0.138317D-01
     21  0.160558D-02  0.574613D-03 -0.472082D-02 -0.182835D-02  0.178374D-01
     22 -0.295723D-03 -0.117239D-02 -0.458562D-02 -0.914107D-03  0.177592D-01
     23  0.138351D-02  0.199786D-03  0.200791D-03 -0.980074D-02 -0.160000D-01
     24 -0.517788D-03 -0.154721D-02  0.335994D-03 -0.888649D-02 -0.160782D-01
     25  0.974212D-04  0.153441D-02  0.401849D-02  0.926514D-02 -0.108921D-02
     26 -0.180388D-02 -0.212589D-03  0.415369D-02  0.101794D-01 -0.116740D-02
               11            12            13            14            15 
     11  0.714222D-01
     12  0.204313D-01  0.749517D-01
     13 -0.291144D-01 -0.453276D-02  0.654068D-01
     14 -0.789614D-02 -0.202949D-01 -0.180073D-01  0.315536D-01
     15  0.510515D-02  0.132589D-01  0.122200D-02 -0.299135D-02  0.718941D-01
     16 -0.544223D-02 -0.105731D-01 -0.172580D-02  0.226665D-02 -0.375666D-01
     17  0.475513D-03 -0.249956D-02  0.325689D-03  0.739986D-03 -0.333359D-01
     18 -0.377212D-02 -0.203063D-01  0.205979D-01 -0.201750D-03 -0.366291D-02
     19 -0.152762D-01  0.231162D-01  0.533643D-02 -0.151766D-01  0.154999D-02
     20  0.173400D-01 -0.312611D-02 -0.237648D-01  0.146616D-01  0.151970D-02
     21 -0.175972D-01 -0.189611D-02  0.253652D-02  0.579536D-03  0.187618D-02
     22 -0.184486D-01 -0.269217D-02  0.347913D-02  0.419766D-03  0.632972D-04
     23  0.155084D-02  0.112637D-01  0.568096D-02  0.782196D-02  0.300941D-02
     24  0.699508D-03  0.104676D-01  0.662357D-02  0.766219D-02  0.119653D-02
     25  0.165145D-01 -0.775556D-02 -0.963607D-02 -0.735605D-02 -0.234580D-02
     26  0.156632D-01 -0.855163D-02 -0.869345D-02 -0.751581D-02 -0.415869D-02
               16            17            18            19            20 
     16  0.718827D-01
     17 -0.336558D-01  0.655377D-01
     18  0.236027D-02  0.120666D-02  0.163048D-01
     19 -0.340323D-03 -0.118210D-02 -0.650198D-02  0.224718D-01
     20 -0.195568D-02  0.550618D-03 -0.604884D-02 -0.121459D-01  0.211679D-01
     21 -0.536049D-03 -0.793726D-03 -0.590380D-02  0.395854D-02  0.341750D-02
     22  0.739418D-04 -0.516580D-03 -0.549948D-02  0.394141D-02  0.270700D-02
     23 -0.199655D-02 -0.480640D-03  0.247412D-02 -0.237940D-02  0.510002D-04
     24 -0.138656D-02 -0.203494D-03  0.287844D-02 -0.239653D-02 -0.659498D-03
     25  0.288491D-02 -0.322972D-04  0.270491D-02 -0.138290D-02 -0.143298D-02
     26  0.349490D-02  0.244849D-03  0.310923D-02 -0.140003D-02 -0.214348D-02
               21            22            23            24            25 
     21  0.162518D-01
     22  0.133070D-01  0.154742D-01
     23 -0.435693D-02 -0.726668D-02  0.152807D-01
     24 -0.730172D-02 -0.509946D-02  0.123709D-01  0.145732D-01
     25 -0.545396D-02 -0.825042D-02 -0.494822D-02 -0.774467D-02  0.149530D-01
     26 -0.839875D-02 -0.608320D-02 -0.785796D-02 -0.554241D-02  0.121566D-01
               26 
     26  0.144721D-01
 Leave Link  716 at Wed May 22 18:40:08 2019, MaxMem=   671088640 cpu:               0.6 elap:               0.0
 (Enter /shared/centos7/gaussian/g16/l103.exe)

 GradGradGradGradGradGradGradGradGradGradGradGradGradGradGradGradGradGrad
 Berny optimization.
 Red2BG is reusing G-inverse.
 Internal  Forces:  Max     0.000007552 RMS     0.000003274
 Search for a local minimum.
 Step number   1 out of a maximum of    2
 All quantities printed in internal units (Hartrees-Bohrs-Radians)
 Second derivative matrix not updated -- analytic derivatives used.
 ITU=  0
     Eigenvalues ---    0.00131   0.00351   0.00778   0.05876   0.06631
     Eigenvalues ---    0.09593   0.09847   0.10876   0.13540   0.16961
     Eigenvalues ---    0.23106   0.31493   0.32146   0.33152   0.36720
     Eigenvalues ---    0.36951   0.40103   0.54067
 Angle between quadratic step and forces=  76.01 degrees.
 Linear search not attempted -- first point.
 Iteration  1 RMS(Cart)=  0.00039406 RMS(Int)=  0.00000015
 Iteration  2 RMS(Cart)=  0.00000015 RMS(Int)=  0.00000002
 ITry= 1 IFail=0 DXMaxC= 1.09D-03 DCOld= 1.00D+10 DXMaxT= 3.00D-01 DXLimC= 3.00D+00 Rises=F
 Variable       Old X    -DE/DX   Delta X   Delta X   Delta X     New X
                                 (Linear)    (Quad)   (Total)
    R1        2.67847  -0.00001   0.00000  -0.00004  -0.00004   2.67842
    R2        1.81541  -0.00001   0.00000  -0.00001  -0.00001   1.81539
    R3        2.80029  -0.00001   0.00000  -0.00002  -0.00002   2.80027
    R4        2.07136  -0.00000   0.00000   0.00001   0.00001   2.07137
    R5        2.07139   0.00000   0.00000   0.00002   0.00002   2.07141
    R6        2.04132  -0.00000   0.00000  -0.00000  -0.00000   2.04132
    R7        2.03922  -0.00000   0.00000   0.00000   0.00000   2.03922
    A1        1.88199  -0.00000   0.00000   0.00001   0.00001   1.88200
    A2        1.96624  -0.00000   0.00000   0.00000   0.00000   1.96625
    A3        1.94046   0.00000   0.00000   0.00003   0.00003   1.94049
    A4        1.83355  -0.00000   0.00000   0.00002   0.00002   1.83356
    A5        1.92466   0.00000   0.00000  -0.00001  -0.00001   1.92465
    A6        1.93619   0.00000   0.00000   0.00001   0.00001   1.93620
    A7        1.85795  -0.00000   0.00000  -0.00005  -0.00005   1.85790
    A8        2.07652  -0.00000   0.00000  -0.00003  -0.00003   2.07649
    A9        2.11246  -0.00000   0.00000  -0.00009  -0.00009   2.11237
   A10        2.07575   0.00000   0.00000   0.00001   0.00001   2.07576
    D1       -0.93193   0.00000   0.00000   0.00002   0.00002  -0.93191
    D2        1.23864   0.00000   0.00000   0.00003   0.00003   1.23867
    D3       -3.04167   0.00000   0.00000  -0.00000  -0.00000  -3.04168
    D4       -0.65658   0.00000   0.00000   0.00059   0.00059  -0.65599
    D5        2.69242   0.00000   0.00000   0.00118   0.00118   2.69360
    D6       -2.83581  -0.00000   0.00000   0.00056   0.00056  -2.83525
    D7        0.51319   0.00000   0.00000   0.00115   0.00115   0.51433
    D8        1.39340  -0.00000   0.00000   0.00062   0.00062   1.39402
    D9       -1.54079   0.00000   0.00000   0.00121   0.00121  -1.53959
         Item               Value     Threshold  Converged?
 Maximum Force            0.000008     0.000450     YES
 RMS     Force            0.000003     0.000300     YES
 Maximum Displacement     0.001089     0.001800     YES
 RMS     Displacement     0.000394     0.001200     YES
 Predicted change in Energy=-4.608104D-09
 Optimization completed.
    -- Stationary point found.
                           ----------------------------
                           !   Optimized Parameters   !
                           ! (Angstroms and Degrees)  !
 --------------------------                            --------------------------
 ! Name  Definition              Value          Derivative Info.                !
 --------------------------------------------------------------------------------
 ! R1    R(1,2)                  1.4174         -DE/DX =    0.0                 !
 ! R2    R(1,8)                  0.9607         -DE/DX =    0.0                 !
 ! R3    R(2,3)                  1.4819         -DE/DX =    0.0                 !
 ! R4    R(2,4)                  1.0961         -DE/DX =    0.0                 !
 ! R5    R(2,5)                  1.0961         -DE/DX =    0.0                 !
 ! R6    R(3,6)                  1.0802         -DE/DX =    0.0                 !
 ! R7    R(3,7)                  1.0791         -DE/DX =    0.0                 !
 ! A1    A(2,1,8)              107.8299         -DE/DX =    0.0                 !
 ! A2    A(1,2,3)              112.6575         -DE/DX =    0.0                 !
 ! A3    A(1,2,4)              111.1802         -DE/DX =    0.0                 !
 ! A4    A(1,2,5)              105.0544         -DE/DX =    0.0                 !
 ! A5    A(3,2,4)              110.2748         -DE/DX =    0.0                 !
 ! A6    A(3,2,5)              110.9355         -DE/DX =    0.0                 !
 ! A7    A(4,2,5)              106.4527         -DE/DX =    0.0                 !
 ! A8    A(2,3,6)              118.9761         -DE/DX =    0.0                 !
 ! A9    A(2,3,7)              121.035          -DE/DX =    0.0                 !
 ! A10   A(6,3,7)              118.9318         -DE/DX =    0.0                 !
 ! D1    D(8,1,2,3)            -53.3954         -DE/DX =    0.0                 !
 ! D2    D(8,1,2,4)             70.969          -DE/DX =    0.0                 !
 ! D3    D(8,1,2,5)           -174.2751         -DE/DX =    0.0                 !
 ! D4    D(1,2,3,6)            -37.6191         -DE/DX =    0.0                 !
 ! D5    D(1,2,3,7)            154.2642         -DE/DX =    0.0                 !
 ! D6    D(4,2,3,6)           -162.4799         -DE/DX =    0.0                 !
 ! D7    D(4,2,3,7)             29.4034         -DE/DX =    0.0                 !
 ! D8    D(5,2,3,6)             79.8359         -DE/DX =    0.0                 !
 ! D9    D(5,2,3,7)            -88.2808         -DE/DX =    0.0                 !
 --------------------------------------------------------------------------------
 GradGradGradGradGradGradGradGradGradGradGradGradGradGradGradGradGradGrad

 Leave Link  103 at Wed May 22 18:40:08 2019, MaxMem=   671088640 cpu:               0.3 elap:               0.0
 (Enter /shared/centos7/gaussian/g16/l9999.exe)

 ----------------------------------------------------------------------

 Electric dipole moment (input orientation):
 (Debye = 10**-18 statcoulomb cm , SI units = C m)
                  (au)            (Debye)         (10**-30 SI)
   Tot        0.604520D+00      0.153654D+01      0.512534D+01
   x          0.511138D+00      0.129918D+01      0.433361D+01
   y          0.322022D+00      0.818498D+00      0.273022D+01
   z          0.220152D-01      0.559571D-01      0.186653D+00

 Dipole polarizability, Alpha (input orientation).
 (esu units = cm**3 , SI units = C**2 m**2 J**-1)
 Alpha(0;0):
               (au)            (10**-24 esu)      (10**-40 SI)
   iso        0.287277D+02      0.425700D+01      0.473655D+01
   aniso      0.582413D+01      0.863047D+00      0.960269D+00
   xx         0.294886D+02      0.436976D+01      0.486201D+01
   yx         0.348809D+00      0.516881D-01      0.575108D-01
   yy         0.293285D+02      0.434603D+01      0.483562D+01
   zx        -0.240782D+01     -0.356802D+00     -0.396996D+00
   zy        -0.199760D+01     -0.296014D+00     -0.329360D+00
   zz         0.273659D+02      0.405521D+01      0.451203D+01

 ----------------------------------------------------------------------

 Dipole orientation:
     8         -1.79652558          0.22249731         -2.60471337
     6          0.06984408         -0.51674637         -0.83147283
     6          0.61884886          1.48067838          1.05281231
     1         -0.45987694         -2.27738734          0.12251374
     1          1.74922254         -0.94624384         -1.96543608
     1          0.63760334          3.43080163          0.44977572
     1          1.34369672          1.01240868          2.90043984
     1         -3.25380166          0.78140521         -1.67752698

 Electric dipole moment (dipole orientation):
 (Debye = 10**-18 statcoulomb cm , SI units = C m)
                  (au)            (Debye)         (10**-30 SI)
   Tot        0.604520D+00      0.153654D+01      0.512534D+01
   x          0.000000D+00      0.000000D+00      0.000000D+00
   y          0.000000D+00      0.000000D+00      0.000000D+00
   z          0.604520D+00      0.153654D+01      0.512534D+01

 Dipole polarizability, Alpha (dipole orientation).
 (esu units = cm**3 , SI units = C**2 m**2 J**-1)
 Alpha(0;0):
               (au)            (10**-24 esu)      (10**-40 SI)
   iso        0.287277D+02      0.425700D+01      0.473655D+01
   aniso      0.582413D+01      0.863047D+00      0.960269D+00
   xx         0.276418D+02      0.409610D+01      0.455752D+01
   yx        -0.483789D+00     -0.716902D-01     -0.797661D-01
   yy         0.290124D+02      0.429919D+01      0.478350D+01
   zx         0.265742D+01      0.393788D+00      0.438149D+00
   zy         0.174928D+01      0.259217D+00      0.288418D+00
   zz         0.295288D+02      0.437571D+01      0.486864D+01

 ----------------------------------------------------------------------

 Test job not archived.
 1\1\GINC-C0074\Freq\UM062X\CC-pVTZ\C2H5O1(2)\HARMS.N\22-May-2019\0\\#P
  Geom=AllCheck Guess=TCheck SCRF=Check Test GenChk UM062X/CC-pVTZ Freq
 \\Gaussian input prepared by ASE\\0,2\O,-1.5115094548,-0.2355875139,0.
 6909096329\C,-0.241728101,-0.4490266823,0.0983901354\C,0.2321404315,0.
 7234759046,-0.6739891814\H,0.5030533331,-0.7348957432,0.8500923668\H,-
 0.3746536876,-1.3199344326,-0.5538027877\H,-0.4830663707,1.2985966148,
 -1.2437173556\H,1.2855043261,0.8976533623,-0.8307044627\H,-1.464404066
 9,0.5756876337,1.2032624914\\Version=EM64L-G16RevA.03\State=2-A\HF=-15
 4.355317\S2=0.755146\S2-1=0.\S2A=0.750021\RMSD=1.622e-09\RMSF=3.664e-0
 6\ZeroPoint=0.0656834\Thermal=0.0701762\Dipole=0.5111379,0.3220221,0.0
 220152\DipoleDeriv=-0.8312433,0.0710445,0.2382214,0.1084113,-0.4023872
 ,0.0816612,0.2497841,0.092452,-0.5929495,0.6765107,-0.0371175,-0.20372
 83,-0.0595839,0.3002687,0.0190236,-0.2175385,-0.0078465,0.4689653,0.05
 65156,0.0257092,0.0551809,-0.0442361,-0.1477176,-0.13725,0.0823178,-0.
 1613807,-0.2532393,-0.1148392,0.0538485,-0.0513931,0.0398838,0.0188957
 ,0.039915,-0.0956522,0.0646388,-0.0686724,0.0219618,-0.0654472,0.01438
 87,-0.0088989,-0.0801136,-0.0624514,0.0185929,-0.0674811,-0.0099758,-0
 .0076052,0.040168,-0.0449525,-0.000813,0.0389819,0.0786584,-0.0264107,
 0.0723162,0.0661085,-0.0661463,-0.0291714,0.0316277,-0.0051691,0.07484
 67,0.0611087,0.0176868,0.0653142,0.0791728,0.2648459,-0.0590341,-0.039
 3448,-0.0295942,0.1972255,-0.0806656,-0.0287803,-0.0580129,0.3105903\P
 olar=29.488581,0.3488088,29.3284938,-2.4078191,-1.9976002,27.3659266\Q
 uadrupole=-0.8924225,0.2938198,0.5986027,-1.3842941,0.0787134,0.958450
 9\PG=C01 [X(C2H5O1)]\NImag=0\\0.32641897,0.00739348,0.46459028,-0.0949
 3102,0.26235692,0.25394416,-0.21255387,0.03898531,0.06988949,0.5107436
 6,0.00524697,-0.08223579,-0.01629434,-0.01216653,0.52733084,0.05075432
 ,-0.02712042,-0.09905768,0.05001339,0.00784328,0.52786636,-0.02998615,
 -0.03021333,0.03036720,-0.09756169,-0.02962663,0.01513808,0.64432873,-
 0.00446605,0.00331164,0.00079361,-0.03692236,-0.17367953,0.08727414,-0
 .00223094,0.37071125,0.01480659,0.01190102,-0.00636397,0.01775145,0.08
 362113,-0.10330609,0.03179406,-0.24148823,0.25214774,-0.03720738,0.010
 57537,-0.00885692,-0.15133633,0.03986388,-0.11264943,0.00949394,-0.002
 60990,0.00523008,0.18017248,0.00725812,0.00100262,0.00127479,0.0381833
 4,-0.06351983,0.04383498,0.01769241,-0.01186305,0.02124416,-0.04581331
 ,0.07027111,0.01675290,-0.00494130,0.01571387,-0.11647952,0.04338464,-
 0.18052607,-0.01149536,0.00514973,-0.00993218,0.12255856,-0.05007714,0
 .18855281,-0.00631447,0.03227254,0.02752942,-0.04882405,-0.03704203,-0
 .03347256,-0.00043150,-0.00928082,-0.00259801,-0.00205541,-0.01607225,
 -0.01337869,0.06329331,0.00446658,-0.00524885,-0.00731240,-0.02463272,
 -0.19876865,-0.12332317,-0.00905365,-0.02520379,-0.00553619,0.00050208
 ,0.00697779,0.00420083,0.02783989,0.22203915,0.00588449,-0.01672270,-0
 .01113961,-0.02191055,-0.10769556,-0.13236706,0.00225118,0.01296939,0.
 01098947,-0.00608543,-0.01909370,-0.01452688,0.01683937,0.13076331,0.1
 4888182,0.00216360,0.00046271,-0.00155951,0.00735591,-0.00653762,0.005
 95208,-0.18635886,0.10379490,-0.10496606,0.00019060,-0.00164378,0.0017
 7833,-0.00007903,-0.00006738,-0.00007131,0.18725741,-0.00095791,0.0028
 6219,-0.00249932,0.02080753,-0.00904560,0.01310246,0.09802040,-0.11963
 428,0.10070078,-0.00259128,-0.00301675,0.00176271,-0.00002285,0.000425
 09,-0.00056713,-0.11046261,0.12267170,-0.00079344,-0.00197913,0.001278
 57,-0.00909729,0.00498463,-0.00351726,-0.10881712,0.10587960,-0.110732
 33,0.00052780,0.00301139,-0.00099311,0.00011707,0.00090197,-0.00046427
 ,0.11310627,-0.11016952,0.10999708,0.00004866,-0.00155630,0.00176317,-
 0.00275969,0.00412993,-0.00200344,-0.34093901,-0.04811642,0.03884150,0
 .00055281,-0.00051995,0.00040263,-0.00005572,-0.00014093,0.00036366,-0
 .01066961,-0.00467681,0.00488435,0.35387250,-0.00209943,-0.00291375,0.
 00272147,-0.02156387,0.00546111,0.00034412,-0.04334640,-0.04602302,0.0
 3005231,0.00115043,0.00064029,0.00015809,0.00052219,-0.00142389,-0.000
 50772,0.01404322,0.00557809,-0.00303270,0.05103464,0.03910100,0.004536
 27,0.00237659,-0.00246681,0.01051737,-0.00001290,0.00228109,0.04229417
 ,0.03022787,-0.03343896,0.00003988,-0.00103355,0.00038228,0.00079745,0
 .00050381,-0.00057259,-0.01435672,-0.00269882,0.00530057,-0.04364494,-
 0.02950010,0.02823526,-0.04256936,-0.05791978,-0.02420184,-0.00506394,
 0.03613204,0.02626756,0.00145455,-0.00016841,-0.00085961,0.00018929,0.
 00091543,-0.00013885,-0.00553312,0.00108613,0.00272859,0.00013998,-0.0
 0011646,0.00007236,-0.00004994,0.00025922,-0.00018349,0.05143254,-0.01
 684176,-0.38136833,-0.24104073,-0.00269069,-0.00554255,-0.00195540,-0.
 00124185,0.00238079,-0.00049498,-0.00107727,-0.00049218,0.00036244,0.0
 0178333,0.00120316,0.00085410,0.00041057,0.00015956,0.00040375,-0.0001
 5416,-0.00041983,0.00013708,0.01981183,0.38407939,0.00298987,-0.225870
 99,-0.15190854,-0.00068436,-0.01583089,-0.01137328,-0.00153221,-0.0008
 0612,0.00063633,-0.00076455,0.00083906,0.00132927,0.00416596,-0.000198
 16,-0.00080088,0.00011693,0.00036883,-0.00086924,-0.00060693,-0.000235
 47,0.00027916,-0.00368472,0.24173374,0.16270719\\-0.00000517,-0.000004
 76,0.00000262,-0.00000064,-0.00000736,-0.00000449,0.00000322,-0.000004
 89,-0.00000518,0.00000064,-0.00000068,0.00000180,-0.00000116,0.0000035
 7,-0.00000044,0.00000057,0.00000371,-0.00000088,0.00000081,0.00000437,
 0.00000044,0.00000173,0.00000604,0.00000613\\\@


 SCIENCE IS A VERY HUMAN FORM OF KNOWLEDGE.
 WE ARE ALWAYS AT THE BRINK OF THE KNOWN,
 WE ALWAYS FEEL FORWARD FOR WHAT IS HOPED.
 EVERY JUDGEMENT IN SCIENCE STANDS ON THE EDGE OF ERROR, AND IS PERSONAL.
 SCIENCE IS A TRIBUTE TO WHAT WE CAN KNOW ALTHOUGH WE ARE FALLIBLE.

                     -- J. BRONOWSKI
 Job cpu time:       0 days  0 hours 34 minutes  8.0 seconds.
 Elapsed time:       0 days  0 hours  1 minutes 43.2 seconds.
 File lengths (MBytes):  RWF=   1312 Int=      0 D2E=      0 Chk=     32 Scr=     32
 Normal termination of Gaussian 16 at Wed May 22 18:40:08 2019.
