 Entering Gaussian System, Link 0=g16
 Initial command:
 /shared/centos7/gaussian/g16/l1.exe "/scratch/harms.n/gauss_scrdir/Gau-3525.inp" -scrdir="/scratch/harms.n/gauss_scrdir/"
 Entering Link 1 = /shared/centos7/gaussian/g16/l1.exe PID=      3526.
  
 Copyright (c) 1988,1990,1992,1993,1995,1998,2003,2009,2016,
            Gaussian, Inc.  All Rights Reserved.
  
 This is part of the Gaussian(R) 16 program.  It is based on
 the Gaussian(R) 09 system (copyright 2009, Gaussian, Inc.),
 the Gaussian(R) 03 system (copyright 2003, Gaussian, Inc.),
 the Gaussian(R) 98 system (copyright 1998, Gaussian, Inc.),
 the Gaussian(R) 94 system (copyright 1995, Gaussian, Inc.),
 the Gaussian 92(TM) system (copyright 1992, Gaussian, Inc.),
 the Gaussian 90(TM) system (copyright 1990, Gaussian, Inc.),
 the Gaussian 88(TM) system (copyright 1988, Gaussian, Inc.),
 the Gaussian 86(TM) system (copyright 1986, Carnegie Mellon
 University), and the Gaussian 82(TM) system (copyright 1983,
 Carnegie Mellon University). Gaussian is a federally registered
 trademark of Gaussian, Inc.
  
 This software contains proprietary and confidential information,
 including trade secrets, belonging to Gaussian, Inc.
  
 This software is provided under written license and may be
 used, copied, transmitted, or stored only in accord with that
 written license.
  
 The following legend is applicable only to US Government
 contracts under FAR:
  
                    RESTRICTED RIGHTS LEGEND
  
 Use, reproduction and disclosure by the US Government is
 subject to restrictions as set forth in subparagraphs (a)
 and (c) of the Commercial Computer Software - Restricted
 Rights clause in FAR 52.227-19.
  
 Gaussian, Inc.
 340 Quinnipiac St., Bldg. 40, Wallingford CT 06492
  
  
 ---------------------------------------------------------------
 Warning -- This program may not be used in any manner that
 competes with the business of Gaussian, Inc. or will provide
 assistance to any competitor of Gaussian, Inc.  The licensee
 of this program is prohibited from giving any competitor of
 Gaussian, Inc. access to this program.  By using this program,
 the user acknowledges that Gaussian, Inc. is engaged in the
 business of creating and licensing software in the field of
 computational chemistry and represents and warrants to the
 licensee that it is not a competitor of Gaussian, Inc. and that
 it will not use this program in any manner prohibited above.
 ---------------------------------------------------------------
  

 Cite this work as:
 Gaussian 16, Revision A.03,
 M. J. Frisch, G. W. Trucks, H. B. Schlegel, G. E. Scuseria, 
 M. A. Robb, J. R. Cheeseman, G. Scalmani, V. Barone, 
 G. A. Petersson, H. Nakatsuji, X. Li, M. Caricato, A. V. Marenich, 
 J. Bloino, B. G. Janesko, R. Gomperts, B. Mennucci, H. P. Hratchian, 
 J. V. Ortiz, A. F. Izmaylov, J. L. Sonnenberg, D. Williams-Young, 
 F. Ding, F. Lipparini, F. Egidi, J. Goings, B. Peng, A. Petrone, 
 T. Henderson, D. Ranasinghe, V. G. Zakrzewski, J. Gao, N. Rega, 
 G. Zheng, W. Liang, M. Hada, M. Ehara, K. Toyota, R. Fukuda, 
 J. Hasegawa, M. Ishida, T. Nakajima, Y. Honda, O. Kitao, H. Nakai, 
 T. Vreven, K. Throssell, J. A. Montgomery, Jr., J. E. Peralta, 
 F. Ogliaro, M. J. Bearpark, J. J. Heyd, E. N. Brothers, K. N. Kudin, 
 V. N. Staroverov, T. A. Keith, R. Kobayashi, J. Normand, 
 K. Raghavachari, A. P. Rendell, J. C. Burant, S. S. Iyengar, 
 J. Tomasi, M. Cossi, J. M. Millam, M. Klene, C. Adamo, R. Cammi, 
 J. W. Ochterski, R. L. Martin, K. Morokuma, O. Farkas, 
 J. B. Foresman, and D. J. Fox, Gaussian, Inc., Wallingford CT, 2016.
 
 ******************************************
 Gaussian 16:  EM64L-G16RevA.03 25-Dec-2016
                22-May-2019 
 ******************************************
 %nprocshared=20
 Will use up to   20 processors via shared memory.
 %mem=5GB
 ----------------------------------------------------------------------
 #p m062x/cc-pVTZ opt=(calcfc,maxcycles=900) freq IOP(7/33=1,2/16=3) sc
 f=(maxcycle=900)
 ----------------------------------------------------------------------
 1/6=900,10=4,18=20,19=15,26=3,38=1/1,3;
 2/9=110,12=2,16=3,17=6,18=5,40=1/2;
 3/5=16,6=1,11=2,25=1,30=1,71=2,74=-55,140=1/1,2,3;
 4//1;
 5/5=2,7=900,38=5/2;
 8/6=4,10=90,11=11/1;
 11/6=1,8=1,9=11,15=111,16=1/1,2,10;
 10/6=1,13=1/2;
 6/7=2,8=2,9=2,10=2,28=1/1;
 7/10=1,18=20,25=1,33=1/1,2,3,16;
 1/6=900,10=4,18=20,19=15,26=3/3(2);
 2/9=110,16=3/2;
 99//99;
 2/9=110,16=3/2;
 3/5=16,6=1,11=2,25=1,30=1,71=1,74=-55/1,2,3;
 4/5=5,16=3,69=1/1;
 5/5=2,7=900,38=5/2;
 7/33=1/1,2,3,16;
 1/6=900,18=20,19=15,26=3/3(-5);
 2/9=110,16=3/2;
 6/7=2,8=2,9=2,10=2,19=2,28=1/1;
 99/9=1/99;
 Leave Link    1 at Wed May 22 18:33:38 2019, MaxMem=   671088640 cpu:              57.3 elap:               3.0
 (Enter /shared/centos7/gaussian/g16/l101.exe)
 ------------------------------
 Gaussian input prepared by ASE
 ------------------------------
 Symbolic Z-matrix:
 Charge =  0 Multiplicity = 2
 O                    -1.11687  -0.04986   1.12208 
 C                    -0.21421  -0.46711   0.13018 
 C                     0.16506   0.60925  -0.87792 
 H                     0.68067  -0.85497   0.64398 
 H                    -0.6317   -1.32712  -0.43579 
 H                     0.55135   0.27061  -1.84354 
 H                    -0.41045   1.53818  -0.90785 
 H                    -1.78367   0.52377   0.68146 
 
 ITRead=  0  0  0  0  0  0  0  0
 MicOpt= -1 -1 -1 -1 -1 -1 -1 -1
 NAtoms=      8 NQM=        8 NQMF=       0 NMMI=      0 NMMIF=      0
                NMic=       0 NMicF=      0.
                    Isotopes and Nuclear Properties:
 (Nuclear quadrupole moments (NQMom) in fm**2, nuclear magnetic moments (NMagM)
  in nuclear magnetons)

  Atom         1           2           3           4           5           6           7           8
 IAtWgt=          16          12          12           1           1           1           1           1
 AtmWgt=  15.9949146  12.0000000  12.0000000   1.0078250   1.0078250   1.0078250   1.0078250   1.0078250
 NucSpn=           0           0           0           1           1           1           1           1
 AtZEff=  -0.0000000  -0.0000000  -0.0000000  -0.0000000  -0.0000000  -0.0000000  -0.0000000  -0.0000000
 NQMom=    0.0000000   0.0000000   0.0000000   0.0000000   0.0000000   0.0000000   0.0000000   0.0000000
 NMagM=    0.0000000   0.0000000   0.0000000   2.7928460   2.7928460   2.7928460   2.7928460   2.7928460
 AtZNuc=   8.0000000   6.0000000   6.0000000   1.0000000   1.0000000   1.0000000   1.0000000   1.0000000
 Leave Link  101 at Wed May 22 18:33:39 2019, MaxMem=   671088640 cpu:              10.0 elap:               0.5
 (Enter /shared/centos7/gaussian/g16/l103.exe)

 GradGradGradGradGradGradGradGradGradGradGradGradGradGradGradGradGradGrad
 Berny optimization.
 Initialization pass.
                           ----------------------------
                           !    Initial Parameters    !
                           ! (Angstroms and Degrees)  !
 --------------------------                            --------------------------
 ! Name  Definition              Value          Derivative Info.                !
 --------------------------------------------------------------------------------
 ! R1    R(1,2)                  1.4046         calculate D2E/DX2 analytically  !
 ! R2    R(1,8)                  0.9838         calculate D2E/DX2 analytically  !
 ! R3    R(2,3)                  1.5227         calculate D2E/DX2 analytically  !
 ! R4    R(2,4)                  1.1024         calculate D2E/DX2 analytically  !
 ! R5    R(2,5)                  1.111          calculate D2E/DX2 analytically  !
 ! R6    R(3,6)                  1.0938         calculate D2E/DX2 analytically  !
 ! R7    R(3,7)                  1.0932         calculate D2E/DX2 analytically  !
 ! A1    A(2,1,8)              107.009          calculate D2E/DX2 analytically  !
 ! A2    A(1,2,3)              114.6841         calculate D2E/DX2 analytically  !
 ! A3    A(1,2,4)              107.2814         calculate D2E/DX2 analytically  !
 ! A4    A(1,2,5)              110.3793         calculate D2E/DX2 analytically  !
 ! A5    A(3,2,4)              110.7982         calculate D2E/DX2 analytically  !
 ! A6    A(3,2,5)              107.6696         calculate D2E/DX2 analytically  !
 ! A7    A(4,2,5)              105.6727         calculate D2E/DX2 analytically  !
 ! A8    A(2,3,6)              116.9746         calculate D2E/DX2 analytically  !
 ! A9    A(2,3,7)              119.1869         calculate D2E/DX2 analytically  !
 ! A10   A(6,3,7)              115.1416         calculate D2E/DX2 analytically  !
 ! D1    D(8,1,2,3)             40.3658         calculate D2E/DX2 analytically  !
 ! D2    D(8,1,2,4)            163.8874         calculate D2E/DX2 analytically  !
 ! D3    D(8,1,2,5)            -81.4436         calculate D2E/DX2 analytically  !
 ! D4    D(1,2,3,6)           -158.4162         calculate D2E/DX2 analytically  !
 ! D5    D(1,2,3,7)            -12.2816         calculate D2E/DX2 analytically  !
 ! D6    D(4,2,3,6)             79.9625         calculate D2E/DX2 analytically  !
 ! D7    D(4,2,3,7)           -133.9029         calculate D2E/DX2 analytically  !
 ! D8    D(5,2,3,6)            -35.1424         calculate D2E/DX2 analytically  !
 ! D9    D(5,2,3,7)            110.9923         calculate D2E/DX2 analytically  !
 --------------------------------------------------------------------------------
 Trust Radius=3.00D-01 FncErr=1.00D-07 GrdErr=1.00D-06 EigMax=2.50D+02 EigMin=1.00D-04
 Number of steps in this run=    100 maximum allowed number of steps=    100.
 GradGradGradGradGradGradGradGradGradGradGradGradGradGradGradGradGradGrad

 Leave Link  103 at Wed May 22 18:33:39 2019, MaxMem=   671088640 cpu:               1.0 elap:               0.1
 (Enter /shared/centos7/gaussian/g16/l202.exe)
                          Input orientation:                          
 ---------------------------------------------------------------------
 Center     Atomic      Atomic             Coordinates (Angstroms)
 Number     Number       Type             X           Y           Z
 ---------------------------------------------------------------------
      1          8           0       -1.116869   -0.049856    1.122079
      2          6           0       -0.214213   -0.467114    0.130176
      3          6           0        0.165060    0.609246   -0.877921
      4          1           0        0.680669   -0.854973    0.643983
      5          1           0       -0.631704   -1.327124   -0.435795
      6          1           0        0.551353    0.270614   -1.843537
      7          1           0       -0.410454    1.538176   -0.907846
      8          1           0       -1.783670    0.523773    0.681464
 ---------------------------------------------------------------------
                    Distance matrix (angstroms):
                    1          2          3          4          5
     1  O    0.000000
     2  C    1.404552   0.000000
     3  C    2.465311   1.522715   0.000000
     4  H    2.026803   1.102381   2.173932   0.000000
     5  H    2.072142   1.110963   2.140056   1.763851   0.000000
     6  H    3.417681   2.241847   1.093758   2.733391   2.436007
     7  H    2.672351   2.266537   1.093171   3.053831   2.912341
     8  H    0.983776   1.936227   2.497307   2.824059   2.449717
                    6          7          8
     6  H    0.000000
     7  H    1.845888   0.000000
     8  H    3.448486   2.332518   0.000000
 Stoichiometry    C2H5O(2)
 Framework group  C1[X(C2H5O)]
 Deg. of freedom    18
 Full point group                 C1      NOp   1
 Largest Abelian subgroup         C1      NOp   1
 Largest concise Abelian subgroup C1      NOp   1
                         Standard orientation:                         
 ---------------------------------------------------------------------
 Center     Atomic      Atomic             Coordinates (Angstroms)
 Number     Number       Type             X           Y           Z
 ---------------------------------------------------------------------
      1          8           0       -1.203595   -0.235932   -0.055655
      2          6           0       -0.033195    0.537034    0.018205
      3          6           0        1.261236   -0.256152   -0.099972
      4          1           0       -0.096324    1.303179   -0.771909
      5          1           0        0.000775    1.096950    0.977151
      6          1           0        2.166147    0.208253    0.302235
      7          1           0        1.226964   -1.346351   -0.027074
      8          1           0       -1.037048   -1.059864    0.455435
 ---------------------------------------------------------------------
 Rotational constants (GHZ):          38.6348790           9.8112146           8.3426386
 Leave Link  202 at Wed May 22 18:33:39 2019, MaxMem=   671088640 cpu:               0.7 elap:               0.0
 (Enter /shared/centos7/gaussian/g16/l301.exe)
 Standard basis: CC-pVTZ (5D, 7F)
 Ernie: Thresh=  0.10000D-02 Tol=  0.10000D-05 Strict=F.
 Ernie:  9 primitive shells out of 118 were deleted.
 There are   180 symmetry adapted cartesian basis functions of A   symmetry.
 There are   160 symmetry adapted basis functions of A   symmetry.
   160 basis functions,   241 primitive gaussians,   180 cartesian basis functions
    13 alpha electrons       12 beta electrons
       nuclear repulsion energy        74.5103626984 Hartrees.
 IExCor= 4336 DFT=T Ex+Corr=M062X ExCW=0 ScaHFX=  0.540000
 ScaDFX=  1.000000  1.000000  1.000000  1.000000 ScalE2=  1.000000  1.000000
 IRadAn=      5 IRanWt=     -1 IRanGd=            0 ICorTp=0 IEmpDi=  4
 NAtoms=    8 NActive=    8 NUniq=    8 SFac= 1.00D+00 NAtFMM=   60 NAOKFM=F Big=F
 Integral buffers will be    131072 words long.
 Raffenetti 2 integral format.
 Two-electron integral symmetry is turned on.
 Leave Link  301 at Wed May 22 18:33:39 2019, MaxMem=   671088640 cpu:               1.3 elap:               0.1
 (Enter /shared/centos7/gaussian/g16/l302.exe)
 NPDir=0 NMtPBC=     1 NCelOv=     1 NCel=       1 NClECP=     1 NCelD=      1
         NCelK=      1 NCelE2=     1 NClLst=     1 CellRange=     0.0.
 One-electron integrals computed using PRISM.
 One-electron integral symmetry used in STVInt
 NBasis=   160 RedAO= T EigKep=  1.05D-03  NBF=   160
 NBsUse=   160 1.00D-06 EigRej= -1.00D+00 NBFU=   160
 Precomputing XC quadrature grid using
 IXCGrd= 4 IRadAn=           5 IRanWt=          -1 IRanGd=           0 AccXCQ= 0.00D+00.
 Generated NRdTot=       0 NPtTot=           0 NUsed=           0 NTot=          32
 NSgBfM=   180   180   180   180   180 MxSgAt=     8 MxSgA2=     8.
 Leave Link  302 at Wed May 22 18:33:39 2019, MaxMem=   671088640 cpu:               4.7 elap:               0.2
 (Enter /shared/centos7/gaussian/g16/l303.exe)
 DipDrv:  MaxL=1.
 Leave Link  303 at Wed May 22 18:33:39 2019, MaxMem=   671088640 cpu:               1.0 elap:               0.1
 (Enter /shared/centos7/gaussian/g16/l401.exe)
 ExpMin= 1.03D-01 ExpMax= 1.53D+04 ExpMxC= 5.22D+02 IAcc=3 IRadAn=         5 AccDes= 0.00D+00
 Harris functional with IExCor= 1009 and IRadAn=       5 diagonalized for initial guess.
 HarFok:  IExCor= 1009 AccDes= 0.00D+00 IRadAn=         5 IDoV= 1 UseB2=F ITyADJ=14
 ICtDFT=  3500011 ScaDFX=  1.000000  1.000000  1.000000  1.000000
 FoFCou: FMM=F IPFlag=           0 FMFlag=      100000 FMFlg1=           0
         NFxFlg=           0 DoJE=T BraDBF=F KetDBF=T FulRan=T
         wScrn=  0.000000 ICntrl=       500 IOpCl=  0 I1Cent=   200000004 NGrid=           0
         NMat0=    1 NMatS0=      1 NMatT0=    0 NMatD0=    1 NMtDS0=    0 NMtDT0=    0
 Petite list used in FoFCou.
 Harris En= -154.278792692056    
 JPrj=0 DoOrth=F DoCkMO=F.
 Initial guess <Sx>= 0.0000 <Sy>= 0.0000 <Sz>= 0.5000 <S**2>= 0.7500 S= 0.5000
 Leave Link  401 at Wed May 22 18:33:40 2019, MaxMem=   671088640 cpu:              13.5 elap:               0.7
 (Enter /shared/centos7/gaussian/g16/l502.exe)
 Keep R1 and R2 ints in memory in canonical form, NReq=186086596.
 FoFCou: FMM=F IPFlag=           0 FMFlag=           0 FMFlg1=           0
         NFxFlg=           0 DoJE=F BraDBF=F KetDBF=F FulRan=T
         wScrn=  0.000000 ICntrl=       600 IOpCl=  0 I1Cent=           0 NGrid=           0
         NMat0=    1 NMatS0=  12880 NMatT0=    0 NMatD0=    1 NMtDS0=    0 NMtDT0=    0
 Symmetry not used in FoFCou.
 Two-electron integral symmetry not used.
 UHF open shell SCF:
 Using DIIS extrapolation, IDIIS=  1040.
 NGot=   671088640 LenX=   505111240 LenY=   505078399
 Requested convergence on RMS density matrix=1.00D-08 within 900 cycles.
 Requested convergence on MAX density matrix=1.00D-06.
 Requested convergence on             energy=1.00D-06.
 No special actions if energy rises.
 Integral accuracy reduced to 1.0D-05 until final iterations.

 Cycle   1  Pass 0  IDiag  1:
 E= -154.250877984489    
 DIIS: error= 2.00D-02 at cycle   1 NSaved=   1.
 NSaved= 1 IEnMin= 1 EnMin= -154.250877984489     IErMin= 1 ErrMin= 2.00D-02
 ErrMax= 2.00D-02  0.00D+00 EMaxC= 1.00D-01 BMatC= 5.03D-01 BMatP= 5.03D-01
 IDIUse=3 WtCom= 8.00D-01 WtEn= 2.00D-01
 Coeff-Com:  0.100D+01
 Coeff-En:   0.100D+01
 Coeff:      0.100D+01
 Gap=     0.308 Goal=   None    Shift=    0.000
 Gap=     0.310 Goal=   None    Shift=    0.000
 GapD=    0.308 DampG=1.000 DampE=0.500 DampFc=0.5000 IDamp=-1.
 Damping current iteration by 5.00D-01
 RMSDP=2.69D-03 MaxDP=1.05D-01              OVMax= 1.29D-01

 Cycle   2  Pass 0  IDiag  1:
 E= -154.300130960961     Delta-E=       -0.049252976472 Rises=F Damp=T
 DIIS: error= 8.04D-03 at cycle   2 NSaved=   2.
 NSaved= 2 IEnMin= 2 EnMin= -154.300130960961     IErMin= 2 ErrMin= 8.04D-03
 ErrMax= 8.04D-03  0.00D+00 EMaxC= 1.00D-01 BMatC= 3.93D-02 BMatP= 5.03D-01
 IDIUse=3 WtCom= 9.20D-01 WtEn= 8.04D-02
 Coeff-Com: -0.631D-01 0.106D+01
 Coeff-En:   0.000D+00 0.100D+01
 Coeff:     -0.580D-01 0.106D+01
 Gap=     0.334 Goal=   None    Shift=    0.000
 Gap=     0.344 Goal=   None    Shift=    0.000
 RMSDP=5.80D-04 MaxDP=2.41D-02 DE=-4.93D-02 OVMax= 6.82D-02

 Cycle   3  Pass 0  IDiag  1:
 E= -154.348113868835     Delta-E=       -0.047982907874 Rises=F Damp=F
 DIIS: error= 2.77D-03 at cycle   3 NSaved=   3.
 NSaved= 3 IEnMin= 3 EnMin= -154.348113868835     IErMin= 3 ErrMin= 2.77D-03
 ErrMax= 2.77D-03  0.00D+00 EMaxC= 1.00D-01 BMatC= 8.42D-03 BMatP= 3.93D-02
 IDIUse=3 WtCom= 9.72D-01 WtEn= 2.77D-02
 Coeff-Com: -0.705D-01 0.298D+00 0.773D+00
 Coeff-En:   0.000D+00 0.000D+00 0.100D+01
 Coeff:     -0.686D-01 0.290D+00 0.779D+00
 Gap=     0.349 Goal=   None    Shift=    0.000
 Gap=     0.320 Goal=   None    Shift=    0.000
 RMSDP=2.08D-04 MaxDP=8.82D-03 DE=-4.80D-02 OVMax= 1.27D-02

 Cycle   4  Pass 0  IDiag  1:
 E= -154.349375308737     Delta-E=       -0.001261439903 Rises=F Damp=F
 DIIS: error= 1.78D-03 at cycle   4 NSaved=   4.
 NSaved= 4 IEnMin= 4 EnMin= -154.349375308737     IErMin= 4 ErrMin= 1.78D-03
 ErrMax= 1.78D-03  0.00D+00 EMaxC= 1.00D-01 BMatC= 2.00D-03 BMatP= 8.42D-03
 IDIUse=3 WtCom= 9.82D-01 WtEn= 1.78D-02
 Coeff-Com: -0.204D-01 0.401D-01 0.353D+00 0.627D+00
 Coeff-En:   0.000D+00 0.000D+00 0.725D-01 0.927D+00
 Coeff:     -0.200D-01 0.394D-01 0.348D+00 0.632D+00
 Gap=     0.343 Goal=   None    Shift=    0.000
 Gap=     0.329 Goal=   None    Shift=    0.000
 RMSDP=7.88D-05 MaxDP=3.11D-03 DE=-1.26D-03 OVMax= 8.85D-03

 Cycle   5  Pass 0  IDiag  1:
 E= -154.349830408161     Delta-E=       -0.000455099423 Rises=F Damp=F
 DIIS: error= 3.34D-04 at cycle   5 NSaved=   5.
 NSaved= 5 IEnMin= 5 EnMin= -154.349830408161     IErMin= 5 ErrMin= 3.34D-04
 ErrMax= 3.34D-04  0.00D+00 EMaxC= 1.00D-01 BMatC= 7.31D-05 BMatP= 2.00D-03
 IDIUse=3 WtCom= 9.97D-01 WtEn= 3.34D-03
 Coeff-Com:  0.403D-02-0.205D-01-0.352D-01 0.596D-01 0.992D+00
 Coeff-En:   0.000D+00 0.000D+00 0.000D+00 0.000D+00 0.100D+01
 Coeff:      0.401D-02-0.204D-01-0.351D-01 0.594D-01 0.992D+00
 Gap=     0.345 Goal=   None    Shift=    0.000
 Gap=     0.329 Goal=   None    Shift=    0.000
 RMSDP=3.75D-05 MaxDP=1.82D-03 DE=-4.55D-04 OVMax= 5.01D-03

 Cycle   6  Pass 0  IDiag  1:
 E= -154.349874429867     Delta-E=       -0.000044021706 Rises=F Damp=F
 DIIS: error= 1.34D-04 at cycle   6 NSaved=   6.
 NSaved= 6 IEnMin= 6 EnMin= -154.349874429867     IErMin= 6 ErrMin= 1.34D-04
 ErrMax= 1.34D-04  0.00D+00 EMaxC= 1.00D-01 BMatC= 1.06D-05 BMatP= 7.31D-05
 IDIUse=3 WtCom= 9.99D-01 WtEn= 1.34D-03
 Coeff-Com:  0.330D-02-0.743D-02-0.651D-01-0.111D+00 0.202D-01 0.116D+01
 Coeff-En:   0.000D+00 0.000D+00 0.000D+00 0.000D+00 0.000D+00 0.100D+01
 Coeff:      0.330D-02-0.742D-02-0.650D-01-0.111D+00 0.202D-01 0.116D+01
 Gap=     0.346 Goal=   None    Shift=    0.000
 Gap=     0.329 Goal=   None    Shift=    0.000
 RMSDP=2.22D-05 MaxDP=1.11D-03 DE=-4.40D-05 OVMax= 3.06D-03

 Cycle   7  Pass 0  IDiag  1:
 E= -154.349883116219     Delta-E=       -0.000008686353 Rises=F Damp=F
 DIIS: error= 4.59D-05 at cycle   7 NSaved=   7.
 NSaved= 7 IEnMin= 7 EnMin= -154.349883116219     IErMin= 7 ErrMin= 4.59D-05
 ErrMax= 4.59D-05  0.00D+00 EMaxC= 1.00D-01 BMatC= 1.39D-06 BMatP= 1.06D-05
 IDIUse=1 WtCom= 1.00D+00 WtEn= 0.00D+00
 Coeff-Com:  0.442D-03-0.267D-03-0.156D-01-0.370D-01-0.655D-01 0.363D+00
 Coeff-Com:  0.755D+00
 Coeff:      0.442D-03-0.267D-03-0.156D-01-0.370D-01-0.655D-01 0.363D+00
 Coeff:      0.755D+00
 Gap=     0.346 Goal=   None    Shift=    0.000
 Gap=     0.330 Goal=   None    Shift=    0.000
 RMSDP=3.65D-06 MaxDP=1.74D-04 DE=-8.69D-06 OVMax= 4.53D-04

 Initial convergence to 1.0D-05 achieved.  Increase integral accuracy.
 Cycle   8  Pass 1  IDiag  1:
 E= -154.349863029909     Delta-E=        0.000020086311 Rises=F Damp=F
 DIIS: error= 3.31D-05 at cycle   1 NSaved=   1.
 NSaved= 1 IEnMin= 1 EnMin= -154.349863029909     IErMin= 1 ErrMin= 3.31D-05
 ErrMax= 3.31D-05  0.00D+00 EMaxC= 1.00D-01 BMatC= 1.21D-06 BMatP= 1.21D-06
 IDIUse=1 WtCom= 1.00D+00 WtEn= 0.00D+00
 Coeff-Com:  0.100D+01
 Coeff:      0.100D+01
 Gap=     0.346 Goal=   None    Shift=    0.000
 Gap=     0.329 Goal=   None    Shift=    0.000
 RMSDP=3.65D-06 MaxDP=1.74D-04 DE= 2.01D-05 OVMax= 1.94D-04

 Cycle   9  Pass 1  IDiag  1:
 E= -154.349863257691     Delta-E=       -0.000000227782 Rises=F Damp=F
 DIIS: error= 1.31D-05 at cycle   2 NSaved=   2.
 NSaved= 2 IEnMin= 2 EnMin= -154.349863257691     IErMin= 2 ErrMin= 1.31D-05
 ErrMax= 1.31D-05  0.00D+00 EMaxC= 1.00D-01 BMatC= 1.13D-07 BMatP= 1.21D-06
 IDIUse=1 WtCom= 1.00D+00 WtEn= 0.00D+00
 Coeff-Com:  0.706D-01 0.929D+00
 Coeff:      0.706D-01 0.929D+00
 Gap=     0.346 Goal=   None    Shift=    0.000
 Gap=     0.329 Goal=   None    Shift=    0.000
 RMSDP=1.12D-06 MaxDP=3.37D-05 DE=-2.28D-07 OVMax= 8.44D-05

 Cycle  10  Pass 1  IDiag  1:
 E= -154.349863284084     Delta-E=       -0.000000026393 Rises=F Damp=F
 DIIS: error= 8.87D-06 at cycle   3 NSaved=   3.
 NSaved= 3 IEnMin= 3 EnMin= -154.349863284084     IErMin= 3 ErrMin= 8.87D-06
 ErrMax= 8.87D-06  0.00D+00 EMaxC= 1.00D-01 BMatC= 5.80D-08 BMatP= 1.13D-07
 IDIUse=1 WtCom= 1.00D+00 WtEn= 0.00D+00
 Coeff-Com: -0.585D-01 0.407D+00 0.652D+00
 Coeff:     -0.585D-01 0.407D+00 0.652D+00
 Gap=     0.346 Goal=   None    Shift=    0.000
 Gap=     0.329 Goal=   None    Shift=    0.000
 RMSDP=4.84D-07 MaxDP=2.25D-05 DE=-2.64D-08 OVMax= 4.27D-05

 Cycle  11  Pass 1  IDiag  1:
 E= -154.349863299750     Delta-E=       -0.000000015666 Rises=F Damp=F
 DIIS: error= 1.98D-06 at cycle   4 NSaved=   4.
 NSaved= 4 IEnMin= 4 EnMin= -154.349863299750     IErMin= 4 ErrMin= 1.98D-06
 ErrMax= 1.98D-06  0.00D+00 EMaxC= 1.00D-01 BMatC= 2.25D-09 BMatP= 5.80D-08
 IDIUse=1 WtCom= 1.00D+00 WtEn= 0.00D+00
 Coeff-Com:  0.146D-02-0.139D+00-0.107D+00 0.124D+01
 Coeff:      0.146D-02-0.139D+00-0.107D+00 0.124D+01
 Gap=     0.346 Goal=   None    Shift=    0.000
 Gap=     0.329 Goal=   None    Shift=    0.000
 RMSDP=3.04D-07 MaxDP=1.40D-05 DE=-1.57D-08 OVMax= 3.11D-05

 Cycle  12  Pass 1  IDiag  1:
 E= -154.349863301776     Delta-E=       -0.000000002025 Rises=F Damp=F
 DIIS: error= 8.73D-07 at cycle   5 NSaved=   5.
 NSaved= 5 IEnMin= 5 EnMin= -154.349863301776     IErMin= 5 ErrMin= 8.73D-07
 ErrMax= 8.73D-07  0.00D+00 EMaxC= 1.00D-01 BMatC= 7.56D-10 BMatP= 2.25D-09
 IDIUse=1 WtCom= 1.00D+00 WtEn= 0.00D+00
 Coeff-Com:  0.925D-02-0.121D+00-0.147D+00 0.519D+00 0.740D+00
 Coeff:      0.925D-02-0.121D+00-0.147D+00 0.519D+00 0.740D+00
 Gap=     0.346 Goal=   None    Shift=    0.000
 Gap=     0.329 Goal=   None    Shift=    0.000
 RMSDP=1.09D-07 MaxDP=4.33D-06 DE=-2.03D-09 OVMax= 1.33D-05

 Cycle  13  Pass 1  IDiag  1:
 E= -154.349863302078     Delta-E=       -0.000000000302 Rises=F Damp=F
 DIIS: error= 3.45D-07 at cycle   6 NSaved=   6.
 NSaved= 6 IEnMin= 6 EnMin= -154.349863302078     IErMin= 6 ErrMin= 3.45D-07
 ErrMax= 3.45D-07  0.00D+00 EMaxC= 1.00D-01 BMatC= 1.12D-10 BMatP= 7.56D-10
 IDIUse=1 WtCom= 1.00D+00 WtEn= 0.00D+00
 Coeff-Com:  0.347D-02-0.260D-01-0.421D-01 0.691D-02 0.299D+00 0.759D+00
 Coeff:      0.347D-02-0.260D-01-0.421D-01 0.691D-02 0.299D+00 0.759D+00
 Gap=     0.346 Goal=   None    Shift=    0.000
 Gap=     0.329 Goal=   None    Shift=    0.000
 RMSDP=3.91D-08 MaxDP=1.50D-06 DE=-3.02D-10 OVMax= 4.85D-06

 Cycle  14  Pass 1  IDiag  1:
 E= -154.349863302117     Delta-E=       -0.000000000039 Rises=F Damp=F
 DIIS: error= 1.02D-07 at cycle   7 NSaved=   7.
 NSaved= 7 IEnMin= 7 EnMin= -154.349863302117     IErMin= 7 ErrMin= 1.02D-07
 ErrMax= 1.02D-07  0.00D+00 EMaxC= 1.00D-01 BMatC= 5.89D-12 BMatP= 1.12D-10
 IDIUse=1 WtCom= 1.00D+00 WtEn= 0.00D+00
 Coeff-Com: -0.831D-03 0.143D-01 0.147D-01-0.744D-01-0.667D-01 0.911D-01
 Coeff-Com:  0.102D+01
 Coeff:     -0.831D-03 0.143D-01 0.147D-01-0.744D-01-0.667D-01 0.911D-01
 Coeff:      0.102D+01
 Gap=     0.346 Goal=   None    Shift=    0.000
 Gap=     0.329 Goal=   None    Shift=    0.000
 RMSDP=1.58D-08 MaxDP=5.68D-07 DE=-3.92D-11 OVMax= 2.34D-06

 Cycle  15  Pass 1  IDiag  1:
 E= -154.349863302122     Delta-E=       -0.000000000005 Rises=F Damp=F
 DIIS: error= 2.51D-08 at cycle   8 NSaved=   8.
 NSaved= 8 IEnMin= 8 EnMin= -154.349863302122     IErMin= 8 ErrMin= 2.51D-08
 ErrMax= 2.51D-08  0.00D+00 EMaxC= 1.00D-01 BMatC= 3.74D-13 BMatP= 5.89D-12
 IDIUse=1 WtCom= 1.00D+00 WtEn= 0.00D+00
 Coeff-Com: -0.312D-03 0.352D-02 0.412D-02-0.109D-01-0.247D-01-0.306D-01
 Coeff-Com:  0.128D+00 0.931D+00
 Coeff:     -0.312D-03 0.352D-02 0.412D-02-0.109D-01-0.247D-01-0.306D-01
 Coeff:      0.128D+00 0.931D+00
 Gap=     0.346 Goal=   None    Shift=    0.000
 Gap=     0.329 Goal=   None    Shift=    0.000
 RMSDP=3.35D-09 MaxDP=1.04D-07 DE=-5.03D-12 OVMax= 4.91D-07

 SCF Done:  E(UM062X) =  -154.349863302     A.U. after   15 cycles
            NFock= 15  Conv=0.33D-08     -V/T= 2.0063
 <Sx>= 0.0000 <Sy>= 0.0000 <Sz>= 0.5000 <S**2>= 0.7552 S= 0.5026
 <L.S>= 0.000000000000E+00
 KE= 1.533812795266D+02 PE=-5.098308600283D+02 EE= 1.275893545012D+02
 Annihilation of the first spin contaminant:
 S**2 before annihilation     0.7552,   after     0.7500
 Leave Link  502 at Wed May 22 18:33:58 2019, MaxMem=   671088640 cpu:             276.8 elap:              17.9
 (Enter /shared/centos7/gaussian/g16/l801.exe)
 DoSCS=F DFT=T ScalE2(SS,OS)=  1.000000  1.000000
 Range of M.O.s used for correlation:     1   160
 NBasis=   160 NAE=    13 NBE=    12 NFC=     0 NFV=     0
 NROrb=    160 NOA=    13 NOB=    12 NVA=   147 NVB=   148
 Leave Link  801 at Wed May 22 18:33:58 2019, MaxMem=   671088640 cpu:               0.9 elap:               0.1
 (Enter /shared/centos7/gaussian/g16/l1101.exe)
 Using compressed storage, NAtomX=     8.
 Will process      9 centers per pass.
 Leave Link 1101 at Wed May 22 18:33:58 2019, MaxMem=   671088640 cpu:               4.7 elap:               0.2
 (Enter /shared/centos7/gaussian/g16/l1102.exe)
 Symmetrizing basis deriv contribution to polar:
 IMax=3 JMax=2 DiffMx= 0.00D+00
 Leave Link 1102 at Wed May 22 18:33:58 2019, MaxMem=   671088640 cpu:               1.0 elap:               0.1
 (Enter /shared/centos7/gaussian/g16/l1110.exe)
 Forming Gx(P) for the SCF density, NAtomX=     8.
 Integral derivatives from FoFJK, PRISM(SPDF).
 Do as many integral derivatives as possible in FoFJK.
 G2DrvN: MDV=     671087928.
 G2DrvN: will do     9 centers at a time, making    1 passes.
 Calling FoFCou, ICntrl=  3107 FMM=F I1Cent=   0 AccDes= 0.00D+00.
 FoFJK:  IHMeth= 1 ICntrl=    3107 DoSepK=F KAlg= 0 I1Cent=           0 FoldK=F
 IRaf=         0 NMat=       1 IRICut=       1 DoRegI=T DoRafI=F ISym2E= 0 IDoP0=0 IntGTp=1.
 FoFCou: FMM=F IPFlag=           0 FMFlag=      100000 FMFlg1=           0
         NFxFlg=           0 DoJE=F BraDBF=F KetDBF=F FulRan=T
         wScrn=  0.000000 ICntrl=      3107 IOpCl=  1 I1Cent=           0 NGrid=           0
         NMat0=    1 NMatS0=      1 NMatT0=    0 NMatD0=    1 NMtDS0=    0 NMtDT0=    0
 Symmetry not used in FoFCou.
 End of G2Drv F.D. properties file   721 does not exist.
 End of G2Drv F.D. properties file   722 does not exist.
 End of G2Drv F.D. properties file   788 does not exist.
 Leave Link 1110 at Wed May 22 18:34:21 2019, MaxMem=   671088640 cpu:             448.8 elap:              22.4
 (Enter /shared/centos7/gaussian/g16/l1002.exe)
 Minotr:  UHF open shell wavefunction.
          IDoAtm=11111111
          Direct CPHF calculation.
          Differentiating once with respect to nuclear coordinates.
          Requested convergence is 1.0D-08 RMS, and 1.0D-07 maximum.
          Secondary convergence is 1.0D-12 RMS, and 1.0D-12 maximum.
          NewPWx=T KeepS1=F KeepF1=F KeepIn=T MapXYZ=F SortEE=F KeepMc=T.
         2371 words used for storage of precomputed grid.
 Keep R1 and R2 ints in memory in canonical form, NReq=186024337.
 FoFCou: FMM=F IPFlag=           0 FMFlag=           0 FMFlg1=           0
         NFxFlg=           0 DoJE=F BraDBF=F KetDBF=F FulRan=T
         wScrn=  0.000000 ICntrl=       600 IOpCl=  0 I1Cent=           0 NGrid=           0
         NMat0=    1 NMatS0=  12880 NMatT0=    0 NMatD0=    1 NMtDS0=    0 NMtDT0=    0
 Symmetry not used in FoFCou.
 Two-electron integral symmetry not used.
          MDV=     671088640 using IRadAn=       1.
          Solving linear equations simultaneously, MaxMat=       0.
          There are    27 degrees of freedom in the 1st order CPHF.  IDoFFX=6 NUNeed=     0.
     21 vectors produced by pass  0 Test12= 1.37D-14 3.70D-09 XBig12= 1.21D-01 9.73D-02.
 AX will form    21 AO Fock derivatives at one time.
     21 vectors produced by pass  1 Test12= 1.37D-14 3.70D-09 XBig12= 1.20D-02 1.54D-02.
     21 vectors produced by pass  2 Test12= 1.37D-14 3.70D-09 XBig12= 4.33D-04 4.95D-03.
     21 vectors produced by pass  3 Test12= 1.37D-14 3.70D-09 XBig12= 5.98D-06 6.41D-04.
     21 vectors produced by pass  4 Test12= 1.37D-14 3.70D-09 XBig12= 7.53D-08 4.00D-05.
     21 vectors produced by pass  5 Test12= 1.37D-14 3.70D-09 XBig12= 7.68D-10 3.96D-06.
     21 vectors produced by pass  6 Test12= 1.37D-14 3.70D-09 XBig12= 5.76D-12 3.61D-07.
      9 vectors produced by pass  7 Test12= 1.37D-14 3.70D-09 XBig12= 5.50D-14 4.45D-08.
      1 vectors produced by pass  8 Test12= 1.37D-14 3.70D-09 XBig12= 4.96D-16 3.77D-09.
 InvSVY:  IOpt=1 It=  1 EMax= 9.99D-16
 Solved reduced A of dimension   157 with    21 vectors.
 End of Minotr F.D. properties file   721 does not exist.
 End of Minotr F.D. properties file   722 does not exist.
 End of Minotr F.D. properties file   788 does not exist.
 Leave Link 1002 at Wed May 22 18:34:59 2019, MaxMem=   671088640 cpu:             759.3 elap:              38.2
 (Enter /shared/centos7/gaussian/g16/l601.exe)
 Copying SCF densities to generalized density rwf, IOpCl= 1 IROHF=0.

 **********************************************************************

            Population analysis using the SCF density.

 **********************************************************************

 Orbital symmetries:
 Alpha Orbitals:
       Occupied  (A) (A) (A) (A) (A) (A) (A) (A) (A) (A) (A) (A)
                 (A)
       Virtual   (A) (A) (A) (A) (A) (A) (A) (A) (A) (A) (A) (A)
                 (A) (A) (A) (A) (A) (A) (A) (A) (A) (A) (A) (A)
                 (A) (A) (A) (A) (A) (A) (A) (A) (A) (A) (A) (A)
                 (A) (A) (A) (A) (A) (A) (A) (A) (A) (A) (A) (A)
                 (A) (A) (A) (A) (A) (A) (A) (A) (A) (A) (A) (A)
                 (A) (A) (A) (A) (A) (A) (A) (A) (A) (A) (A) (A)
                 (A) (A) (A) (A) (A) (A) (A) (A) (A) (A) (A) (A)
                 (A) (A) (A) (A) (A) (A) (A) (A) (A) (A) (A) (A)
                 (A) (A) (A) (A) (A) (A) (A) (A) (A) (A) (A) (A)
                 (A) (A) (A) (A) (A) (A) (A) (A) (A) (A) (A) (A)
                 (A) (A) (A) (A) (A) (A) (A) (A) (A) (A) (A) (A)
                 (A) (A) (A) (A) (A) (A) (A) (A) (A) (A) (A) (A)
                 (A) (A) (A)
 Beta  Orbitals:
       Occupied  (A) (A) (A) (A) (A) (A) (A) (A) (A) (A) (A) (A)
       Virtual   (A) (A) (A) (A) (A) (A) (A) (A) (A) (A) (A) (A)
                 (A) (A) (A) (A) (A) (A) (A) (A) (A) (A) (A) (A)
                 (A) (A) (A) (A) (A) (A) (A) (A) (A) (A) (A) (A)
                 (A) (A) (A) (A) (A) (A) (A) (A) (A) (A) (A) (A)
                 (A) (A) (A) (A) (A) (A) (A) (A) (A) (A) (A) (A)
                 (A) (A) (A) (A) (A) (A) (A) (A) (A) (A) (A) (A)
                 (A) (A) (A) (A) (A) (A) (A) (A) (A) (A) (A) (A)
                 (A) (A) (A) (A) (A) (A) (A) (A) (A) (A) (A) (A)
                 (A) (A) (A) (A) (A) (A) (A) (A) (A) (A) (A) (A)
                 (A) (A) (A) (A) (A) (A) (A) (A) (A) (A) (A) (A)
                 (A) (A) (A) (A) (A) (A) (A) (A) (A) (A) (A) (A)
                 (A) (A) (A) (A) (A) (A) (A) (A) (A) (A) (A) (A)
                 (A) (A) (A) (A)
 The electronic state is 2-A.
 Alpha  occ. eigenvalues --  -19.62396 -10.59408 -10.55619  -1.14680  -0.83952
 Alpha  occ. eigenvalues --   -0.71085  -0.57223  -0.53173  -0.52191  -0.46274
 Alpha  occ. eigenvalues --   -0.41129  -0.36540  -0.27636
 Alpha virt. eigenvalues --    0.06918   0.09908   0.10977   0.13856   0.15616
 Alpha virt. eigenvalues --    0.20563   0.24111   0.32077   0.34546   0.37495
 Alpha virt. eigenvalues --    0.38496   0.40230   0.41671   0.43638   0.47500
 Alpha virt. eigenvalues --    0.48243   0.49873   0.50904   0.51910   0.54593
 Alpha virt. eigenvalues --    0.59642   0.61969   0.68707   0.72731   0.75816
 Alpha virt. eigenvalues --    0.80086   0.87253   0.92070   0.94680   0.94953
 Alpha virt. eigenvalues --    1.00043   1.02467   1.06362   1.09655   1.11047
 Alpha virt. eigenvalues --    1.14118   1.18935   1.20464   1.22722   1.26848
 Alpha virt. eigenvalues --    1.29604   1.33455   1.34255   1.35682   1.40537
 Alpha virt. eigenvalues --    1.44833   1.51091   1.54578   1.60720   1.88110
 Alpha virt. eigenvalues --    1.96307   1.97163   2.07389   2.08702   2.18567
 Alpha virt. eigenvalues --    2.20717   2.22376   2.33128   2.34381   2.40256
 Alpha virt. eigenvalues --    2.51057   2.55123   2.60336   2.64151   2.69651
 Alpha virt. eigenvalues --    2.72456   2.81635   2.85348   2.86619   2.87852
 Alpha virt. eigenvalues --    2.90724   2.93976   2.95446   2.97390   3.01158
 Alpha virt. eigenvalues --    3.02862   3.09011   3.11990   3.14913   3.16689
 Alpha virt. eigenvalues --    3.21695   3.25107   3.29693   3.32983   3.38345
 Alpha virt. eigenvalues --    3.42561   3.43488   3.46641   3.50016   3.51318
 Alpha virt. eigenvalues --    3.58274   3.60136   3.61910   3.66788   3.72534
 Alpha virt. eigenvalues --    3.77391   3.80077   3.82490   3.85395   3.86768
 Alpha virt. eigenvalues --    3.88252   3.92565   3.96108   3.98997   4.02835
 Alpha virt. eigenvalues --    4.04860   4.06359   4.12254   4.13424   4.20839
 Alpha virt. eigenvalues --    4.26568   4.35072   4.38363   4.46401   4.58659
 Alpha virt. eigenvalues --    4.67720   4.71965   4.74192   4.76873   4.80224
 Alpha virt. eigenvalues --    4.82881   4.87306   4.93114   5.00879   5.08448
 Alpha virt. eigenvalues --    5.15808   5.21711   5.31832   5.33267   5.39089
 Alpha virt. eigenvalues --    5.56391   5.63703   5.74171   5.75627   5.99351
 Alpha virt. eigenvalues --    6.16268   6.40832   6.60374   6.62864   6.72459
 Alpha virt. eigenvalues --    6.86457   6.91045   7.11757   7.32062  11.06957
 Alpha virt. eigenvalues --   11.54290  12.40964
  Beta  occ. eigenvalues --  -19.62396 -10.59460 -10.54831  -1.14641  -0.81697
  Beta  occ. eigenvalues --   -0.68931  -0.56544  -0.52340  -0.51202  -0.45351
  Beta  occ. eigenvalues --   -0.40427  -0.35492
  Beta virt. eigenvalues --   -0.02544   0.06480   0.09571   0.11021   0.13288
  Beta virt. eigenvalues --    0.15416   0.20234   0.23993   0.31146   0.35346
  Beta virt. eigenvalues --    0.35707   0.37509   0.40051   0.42253   0.43597
  Beta virt. eigenvalues --    0.47626   0.47974   0.49784   0.51846   0.52341
  Beta virt. eigenvalues --    0.55715   0.59832   0.61736   0.68677   0.72539
  Beta virt. eigenvalues --    0.75941   0.79958   0.86687   0.91629   0.94134
  Beta virt. eigenvalues --    0.94353   0.99745   1.02713   1.06499   1.09148
  Beta virt. eigenvalues --    1.11217   1.14306   1.19290   1.20443   1.22736
  Beta virt. eigenvalues --    1.27202   1.29754   1.33581   1.33984   1.36387
  Beta virt. eigenvalues --    1.40458   1.44824   1.52501   1.54701   1.61821
  Beta virt. eigenvalues --    1.88249   1.96918   1.97558   2.07658   2.10370
  Beta virt. eigenvalues --    2.18809   2.23342   2.25566   2.33652   2.35175
  Beta virt. eigenvalues --    2.41193   2.52017   2.56939   2.62874   2.67351
  Beta virt. eigenvalues --    2.71149   2.75269   2.83989   2.86806   2.88848
  Beta virt. eigenvalues --    2.90049   2.92809   2.95646   2.98118   3.02743
  Beta virt. eigenvalues --    3.02822   3.05305   3.11407   3.13460   3.16766
  Beta virt. eigenvalues --    3.17948   3.22980   3.26178   3.30429   3.33746
  Beta virt. eigenvalues --    3.39303   3.43108   3.44162   3.47061   3.50821
  Beta virt. eigenvalues --    3.52241   3.58583   3.60677   3.62743   3.67538
  Beta virt. eigenvalues --    3.73253   3.77989   3.80684   3.83282   3.86528
  Beta virt. eigenvalues --    3.87379   3.88591   3.93134   3.97007   4.00837
  Beta virt. eigenvalues --    4.03425   4.05691   4.06933   4.12465   4.13764
  Beta virt. eigenvalues --    4.22251   4.27762   4.36339   4.39077   4.48672
  Beta virt. eigenvalues --    4.59848   4.68594   4.73566   4.76076   4.78607
  Beta virt. eigenvalues --    4.82659   4.85029   4.89647   4.94733   5.03217
  Beta virt. eigenvalues --    5.10890   5.17777   5.23580   5.35434   5.37328
  Beta virt. eigenvalues --    5.40148   5.56752   5.71293   5.74398   5.75710
  Beta virt. eigenvalues --    5.99972   6.16251   6.40856   6.60425   6.62901
  Beta virt. eigenvalues --    6.72466   6.86484   6.91081   7.11746   7.32096
  Beta virt. eigenvalues --   11.07694  11.54468  12.41683
          Condensed to atoms (all electrons):
               1          2          3          4          5          6
     1  O    7.856750   0.346043  -0.051419  -0.035409  -0.053789   0.004490
     2  C    0.346043   4.636469   0.324913   0.385070   0.403172  -0.036203
     3  C   -0.051419   0.324913   5.444890  -0.041252  -0.070476   0.373485
     4  H   -0.035409   0.385070  -0.041252   0.650676  -0.078773  -0.000305
     5  H   -0.053789   0.403172  -0.070476  -0.078773   0.726685   0.001983
     6  H    0.004490  -0.036203   0.373485  -0.000305   0.001983   0.550039
     7  H   -0.002115  -0.040691   0.392205   0.002912   0.003742  -0.038272
     8  H    0.322064  -0.047532  -0.006354   0.011321  -0.008856   0.000156
               7          8
     1  O   -0.002115   0.322064
     2  C   -0.040691  -0.047532
     3  C    0.392205  -0.006354
     4  H    0.002912   0.011321
     5  H    0.003742  -0.008856
     6  H   -0.038272   0.000156
     7  H    0.527111   0.005204
     8  H    0.005204   0.476756
          Atomic-Atomic Spin Densities.
               1          2          3          4          5          6
     1  O    0.001905   0.003579  -0.000481  -0.000622   0.001422  -0.000229
     2  C    0.003579  -0.062710  -0.040200   0.011228   0.017707   0.002373
     3  C   -0.000481  -0.040200   1.146571  -0.021472  -0.031060  -0.002447
     4  H   -0.000622   0.011228  -0.021472   0.065269  -0.020409   0.000910
     5  H    0.001422   0.017707  -0.031060  -0.020409   0.081382  -0.001275
     6  H   -0.000229   0.002373  -0.002447   0.000910  -0.001275  -0.039178
     7  H    0.000131   0.003778  -0.003593   0.000152  -0.000751   0.003419
     8  H   -0.002057   0.000517   0.003197   0.001070  -0.002781   0.000069
               7          8
     1  O    0.000131  -0.002057
     2  C    0.003778   0.000517
     3  C   -0.003593   0.003197
     4  H    0.000152   0.001070
     5  H   -0.000751  -0.002781
     6  H    0.003419   0.000069
     7  H   -0.039173   0.000138
     8  H    0.000138   0.001307
 Mulliken charges and spin densities:
               1          2
     1  O   -0.386613   0.003648
     2  C    0.028760  -0.063728
     3  C   -0.365992   1.050515
     4  H    0.105761   0.036127
     5  H    0.076313   0.044236
     6  H    0.144626  -0.036357
     7  H    0.149904  -0.035899
     8  H    0.247241   0.001459
 Sum of Mulliken charges =  -0.00000   1.00000
 Mulliken charges and spin densities with hydrogens summed into heavy atoms:
               1          2
     1  O   -0.139372   0.005107
     2  C    0.210834   0.016635
     3  C   -0.071462   0.978258
 APT charges:
               1
     1  O   -0.507230
     2  C   -0.529698
     3  C   -0.762585
     4  H    0.332766
     5  H    0.279279
     6  H    0.411239
     7  H    0.338833
     8  H    0.437396
 Sum of APT charges =  -0.00000
 APT charges with hydrogens summed into heavy atoms:
               1
     1  O   -0.069834
     2  C    0.082347
     3  C   -0.012513
 Electronic spatial extent (au):  <R**2>=            182.3962
 Charge=             -0.0000 electrons
 Dipole moment (field-independent basis, Debye):
    X=              1.2179    Y=             -0.4135    Z=              1.1306  Tot=              1.7125
 Quadrupole moment (field-independent basis, Debye-Ang):
   XX=            -22.1172   YY=            -16.7574   ZZ=            -20.0438
   XY=              0.9641   XZ=             -0.2096   YZ=             -1.2583
 Traceless Quadrupole moment (field-independent basis, Debye-Ang):
   XX=             -2.4778   YY=              2.8821   ZZ=             -0.4043
   XY=              0.9641   XZ=             -0.2096   YZ=             -1.2583
 Octapole moment (field-independent basis, Debye-Ang**2):
  XXX=             -1.0886  YYY=             -4.0197  ZZZ=              1.0910  XYY=             -3.6160
  XXY=             -0.8549  XXZ=              2.6896  XZZ=             -3.4534  YZZ=              0.3884
  YYZ=              0.9671  XYZ=              1.4477
 Hexadecapole moment (field-independent basis, Debye-Ang**3):
 XXXX=           -155.6243 YYYY=            -52.3786 ZZZZ=            -29.4686 XXXY=              5.6885
 XXXZ=              3.0448 YYYX=              3.3448 YYYZ=             -2.7139 ZZZX=              0.7341
 ZZZY=             -1.1196 XXYY=            -32.3808 XXZZ=            -32.4588 YYZZ=            -13.3863
 XXYZ=             -1.1832 YYXZ=             -0.8357 ZZXY=              1.5638
 N-N= 7.451036269842D+01 E-N=-5.098308569115D+02  KE= 1.533812795266D+02
  Exact polarizability:   0.000   0.000   0.000   0.000   0.000   0.000
 Approx polarizability:  33.424   0.081  34.521   0.755  -0.802  28.341
                          Isotropic Fermi Contact Couplings
        Atom                 a.u.       MegaHertz       Gauss      10(-4) cm-1
     1  O(17)              0.00201      -1.21634      -0.43402      -0.40573
     2  C(13)             -0.02713     -30.49839     -10.88258     -10.17317
     3  C(13)              0.25197     283.25788     101.07346      94.48466
     4  H(1)               0.01905      85.16183      30.38786      28.40693
     5  H(1)               0.02169      96.96189      34.59841      32.34301
     6  H(1)              -0.01229     -54.95536     -19.60944     -18.33114
     7  H(1)              -0.01393     -62.26125     -22.21636     -20.76812
     8  H(1)              -0.00032      -1.41850      -0.50616      -0.47316
 --------------------------------------------------------
       Center         ----  Spin Dipole Couplings  ----
                      3XX-RR        3YY-RR        3ZZ-RR
 --------------------------------------------------------
     1   Atom        0.021284      0.001608     -0.022892
     2   Atom       -0.001081     -0.014810      0.015891
     3   Atom       -0.482479     -0.521438      1.003918
     4   Atom        0.001751      0.007280     -0.009031
     5   Atom        0.000083      0.000969     -0.001052
     6   Atom        0.034121     -0.039425      0.005304
     7   Atom       -0.067672      0.074161     -0.006489
     8   Atom        0.011427     -0.005900     -0.005527
 --------------------------------------------------------
                        XY            XZ            YZ
 --------------------------------------------------------
     1   Atom       -0.005802     -0.000317      0.000953
     2   Atom       -0.006030     -0.010692      0.004117
     3   Atom        0.026789     -0.283548     -0.128591
     4   Atom       -0.013573      0.003942     -0.006992
     5   Atom       -0.009125     -0.006153      0.010279
     6   Atom        0.054624      0.027301      0.013730
     7   Atom        0.005808     -0.011420     -0.010999
     8   Atom        0.006699     -0.003360     -0.001644
 --------------------------------------------------------


 ---------------------------------------------------------------------------------
              Anisotropic Spin Dipole Couplings in Principal Axis System
 ---------------------------------------------------------------------------------

       Atom             a.u.   MegaHertz   Gauss  10(-4) cm-1        Axes

              Baa    -0.0229     1.659     0.592     0.553  0.0021 -0.0383  0.9993
     1 O(17)  Bbb     0.0001    -0.004    -0.001    -0.001  0.2640  0.9638  0.0364
              Bcc     0.0229    -1.655    -0.591    -0.552  0.9645 -0.2637 -0.0122
 
              Baa    -0.0171    -2.292    -0.818    -0.765  0.3508  0.9365 -0.0032
     2 C(13)  Bbb    -0.0051    -0.680    -0.243    -0.227  0.8223 -0.3064  0.4796
              Bcc     0.0222     2.973     1.061     0.992 -0.4482  0.1708  0.8775
 
              Baa    -0.5368   -72.031   -25.702   -24.027  0.8232 -0.5579  0.1049
     3 C(13)  Bbb    -0.5302   -71.154   -25.390   -23.734  0.5382  0.8258  0.1687
              Bcc     1.0670   143.185    51.092    47.761 -0.1808 -0.0824  0.9801
 
              Baa    -0.0118    -6.322    -2.256    -2.109  0.2198  0.4687  0.8556
     4 H(1)   Bbb    -0.0086    -4.611    -1.645    -1.538  0.7679  0.4578 -0.4481
              Bcc     0.0205    10.933     3.901     3.647 -0.6017  0.7555 -0.2593
 
              Baa    -0.0108    -5.781    -2.063    -1.928  0.2809  0.7445 -0.6056
     5 H(1)   Bbb    -0.0064    -3.417    -1.219    -1.140  0.7949  0.1731  0.5815
              Bcc     0.0172     9.198     3.282     3.068 -0.5378  0.6448  0.5432
 
              Baa    -0.0685   -36.553   -13.043   -12.193 -0.4720  0.8815  0.0106
     6 H(1)   Bbb    -0.0078    -4.177    -1.491    -1.393 -0.3437 -0.1951  0.9186
              Bcc     0.0763    40.730    14.533    13.586  0.8118  0.4299  0.3951
 
              Baa    -0.0698   -37.260   -13.295   -12.429  0.9846 -0.0265  0.1729
     7 H(1)   Bbb    -0.0062    -3.293    -1.175    -1.098 -0.1673  0.1456  0.9751
              Bcc     0.0760    40.553    14.470    13.527  0.0510  0.9890 -0.1389
 
              Baa    -0.0083    -4.424    -1.579    -1.476 -0.2813  0.9354  0.2143
     8 H(1)   Bbb    -0.0061    -3.263    -1.164    -1.088  0.2401 -0.1476  0.9594
              Bcc     0.0144     7.687     2.743     2.564  0.9291  0.3213 -0.1831
 

 ---------------------------------------------------------------------------------

 No NMR shielding tensors so no spin-rotation constants.
 Leave Link  601 at Wed May 22 18:35:00 2019, MaxMem=   671088640 cpu:               9.1 elap:               0.5
 (Enter /shared/centos7/gaussian/g16/l701.exe)
 SCFChk:  SCF convergence  3.35D-09 required  1.00D-08
 ... and contract with generalized density number  0.
 Compute integral second derivatives.
 Entering OneElI...
 Calculate overlap and kinetic energy integrals
    NBasis = 180  MinDer = 2  MaxDer = 2
 Requested accuracy = 0.1000D-12
 PrmmSu-InSpLW:  IPartL=    0 NPrtUS=   20 NPrtUL=    1 DoSpLW=F IThBeg=    0 IThEnd=   19 NThAct=   20.
 PrsmSu:  NPrtUS=  20 ThrOK=T IAlg=1 NPAlg=1 LenDen=           0 ISkipM=0 DoSpLW=F IThBeg=    0 IThEnd=   19.
 Prism:   IPart=     0 DynPar=F LinDyn=F Incr=           1.
 PRISM was handed    33498274 working-precision words and  1830 shell-pairs
 PRISM was handed    33498274 working-precision words and  1830 shell-pairs
 PRISM was handed    33498274 working-precision words and  1830 shell-pairs
 PRISM was handed    33498274 working-precision words and  1830 shell-pairs
 PRISM was handed    33498274 working-precision words and  1830 shell-pairs
 PRISM was handed    33498274 working-precision words and  1830 shell-pairs
 PRISM was handed    33498274 working-precision words and  1830 shell-pairs
 PRISM was handed    33498274 working-precision words and  1830 shell-pairs
 PRISM was handed    33498274 working-precision words and  1830 shell-pairs
 PRISM was handed    33498274 working-precision words and  1830 shell-pairs
 PRISM was handed    33498274 working-precision words and  1830 shell-pairs
 PRISM was handed    33498274 working-precision words and  1830 shell-pairs
 PRISM was handed    33498274 working-precision words and  1830 shell-pairs
 PRISM was handed    33498274 working-precision words and  1830 shell-pairs
 PRISM was handed    33498274 working-precision words and  1830 shell-pairs
 PRISM was handed    33498274 working-precision words and  1830 shell-pairs
 PRISM was handed    33498274 working-precision words and  1830 shell-pairs
 PRISM was handed    33498274 working-precision words and  1830 shell-pairs
 PRISM was handed    33498274 working-precision words and  1830 shell-pairs
 PRISM was handed    33498274 working-precision words and  1830 shell-pairs
 IPart=  4 NShTot=         103 NBatch=          31 AvBLen=         3.3
 IPart= 10 NShTot=          85 NBatch=          21 AvBLen=         4.0
 IPart=  9 NShTot=          87 NBatch=          21 AvBLen=         4.1
 IPart=  7 NShTot=          95 NBatch=          24 AvBLen=         4.0
 IPart=  1 NShTot=         119 NBatch=          47 AvBLen=         2.5
 IPart=  2 NShTot=         116 NBatch=          44 AvBLen=         2.6
 IPart=  3 NShTot=         109 NBatch=          37 AvBLen=         2.9
 IPart= 11 NShTot=          85 NBatch=          21 AvBLen=         4.0
 IPart=  8 NShTot=          91 NBatch=          24 AvBLen=         3.8
 IPart=  0 NShTot=         130 NBatch=          58 AvBLen=         2.2
 IPart= 16 NShTot=          73 NBatch=          20 AvBLen=         3.7
 IPart= 18 NShTot=          73 NBatch=          20 AvBLen=         3.7
 IPart= 19 NShTot=          73 NBatch=          20 AvBLen=         3.7
 IPart= 17 NShTot=          73 NBatch=          20 AvBLen=         3.7
 IPart= 12 NShTot=          85 NBatch=          21 AvBLen=         4.0
 IPart=  5 NShTot=         101 NBatch=          29 AvBLen=         3.5
 IPart= 15 NShTot=          78 NBatch=          20 AvBLen=         3.9
 IPart=  6 NShTot=          95 NBatch=          24 AvBLen=         4.0
 IPart= 14 NShTot=          79 NBatch=          21 AvBLen=         3.8
 IPart= 13 NShTot=          80 NBatch=          21 AvBLen=         3.8
 PrSmSu:  NxtVal=             21.
 Entering OneElI...
 Calculate potential energy integrals
    NBasis = 180  MinDer = 2  MaxDer = 2
 Requested accuracy = 0.1000D-12
 PrmmSu-InSpLW:  IPartL=    0 NPrtUS=   20 NPrtUL=    1 DoSpLW=F IThBeg=    0 IThEnd=   19 NThAct=   20.
 PrsmSu:  NPrtUS=  20 ThrOK=T IAlg=1 NPAlg=1 LenDen=           0 ISkipM=0 DoSpLW=F IThBeg=    0 IThEnd=   19.
 Prism:   IPart=     0 DynPar=F LinDyn=F Incr=           7.
 PRISM was handed    33503256 working-precision words and  1819 shell-pairs
 PRISM was handed    33503256 working-precision words and  1819 shell-pairs
 PRISM was handed    33503256 working-precision words and  1819 shell-pairs
 PRISM was handed    33503256 working-precision words and  1819 shell-pairs
 PRISM was handed    33503256 working-precision words and  1819 shell-pairs
 PRISM was handed    33503256 working-precision words and  1819 shell-pairs
 PRISM was handed    33503256 working-precision words and  1819 shell-pairs
 PRISM was handed    33503256 working-precision words and  1819 shell-pairs
 PRISM was handed    33503256 working-precision words and  1819 shell-pairs
 PRISM was handed    33503256 working-precision words and  1819 shell-pairs
 PRISM was handed    33503256 working-precision words and  1819 shell-pairs
 PRISM was handed    33503256 working-precision words and  1819 shell-pairs
 PRISM was handed    33503256 working-precision words and  1819 shell-pairs
 PRISM was handed    33503256 working-precision words and  1819 shell-pairs
 PRISM was handed    33503256 working-precision words and  1819 shell-pairs
 PRISM was handed    33503256 working-precision words and  1819 shell-pairs
 PRISM was handed    33503256 working-precision words and  1819 shell-pairs
 PRISM was handed    33503256 working-precision words and  1819 shell-pairs
 PRISM was handed    33503256 working-precision words and  1819 shell-pairs
 PRISM was handed    33503256 working-precision words and  1819 shell-pairs
 IPart=  4 NShTot=         816 NBatch=         102 AvBLen=         8.0
 IPart=  7 NShTot=         744 NBatch=          93 AvBLen=         8.0
 IPart=  2 NShTot=         896 NBatch=         112 AvBLen=         8.0
 IPart= 10 NShTot=         672 NBatch=          84 AvBLen=         8.0
 IPart=  9 NShTot=         672 NBatch=          84 AvBLen=         8.0
 IPart=  1 NShTot=         944 NBatch=         118 AvBLen=         8.0
 IPart=  5 NShTot=         816 NBatch=         102 AvBLen=         8.0
 IPart= 12 NShTot=         648 NBatch=          81 AvBLen=         8.0
 IPart= 13 NShTot=         632 NBatch=          79 AvBLen=         8.0
 IPart=  0 NShTot=        1056 NBatch=         132 AvBLen=         8.0
 IPart= 14 NShTot=         632 NBatch=          79 AvBLen=         8.0
 IPart= 16 NShTot=         616 NBatch=          77 AvBLen=         8.0
 IPart=  3 NShTot=         832 NBatch=         104 AvBLen=         8.0
 IPart= 19 NShTot=         600 NBatch=          75 AvBLen=         8.0
 IPart= 15 NShTot=         624 NBatch=          78 AvBLen=         8.0
 IPart= 18 NShTot=         600 NBatch=          75 AvBLen=         8.0
 IPart=  6 NShTot=         768 NBatch=          96 AvBLen=         8.0
 IPart= 17 NShTot=         616 NBatch=          77 AvBLen=         8.0
 IPart= 11 NShTot=         648 NBatch=          81 AvBLen=         8.0
 IPart=  8 NShTot=         720 NBatch=          90 AvBLen=         8.0
 PrSmSu:  NxtVal=            141.
 Polarizability after L701:
                1             2             3 
      1  0.000000D+00
      2  0.000000D+00  0.000000D+00
      3  0.000000D+00  0.000000D+00  0.000000D+00
 Dipole Derivatives after L701:
                 1             2             3             4             5 
      1  -0.937572D-01 -0.422716D+00  0.226577D+00 -0.333350D+00 -0.954318D-01
      2   0.724712D-01 -0.901813D+00  0.299827D+00  0.184974D-02 -0.603151D+00
      3   0.252963D-01  0.278395D+00 -0.526121D+00 -0.102874D-01 -0.600533D-01
                 6             7             8             9            10 
      1  -0.197732D-01 -0.112863D+01  0.167842D+00 -0.526711D+00  0.148520D+00
      2  -0.600026D-01 -0.120730D+00 -0.924121D+00  0.535950D-01 -0.115741D-01
      3  -0.652594D+00 -0.204636D+00 -0.429234D-01 -0.235004D+00  0.504250D-01
                11            12            13            14            15 
      1   0.293937D-03  0.530589D-01  0.140619D+00  0.231922D-01 -0.146905D-01
      2   0.475884D+00 -0.286363D+00  0.764704D-02  0.283912D+00  0.259304D+00
      3  -0.205263D+00  0.373894D+00 -0.256769D-01  0.146969D+00  0.413306D+00
                16            17            18            19            20 
      1   0.894676D+00  0.348754D+00  0.395439D+00  0.169004D+00 -0.475822D+00
      2   0.112851D+00  0.191105D+00  0.497470D-01 -0.956880D-02  0.758082D+00
      3   0.117410D+00  0.592317D-01  0.147938D+00  0.631714D-02  0.298643D-01
                21            22            23            24 
      1   0.936622D-01  0.202917D+00  0.453888D+00 -0.207562D+00
      2  -0.658320D-01 -0.529457D-01  0.720103D+00 -0.250276D+00
      3   0.894124D-01  0.411518D-01 -0.206220D+00  0.389169D+00
 Hessian after L701:
                1             2             3             4             5 
      1  0.490982D+01
      2 -0.281529D+01  0.601703D+01
      3 -0.468214D+00  0.162351D+01  0.103070D+02
      4 -0.947387D+00  0.360012D+01  0.326569D+00  0.773268D+01
      5  0.364669D+01 -0.412466D+01  0.149244D+00 -0.188761D+01  0.115794D+02
      6  0.295616D+00  0.134311D+00 -0.671871D+01 -0.161207D+00 -0.320729D+00
      7  0.624499D+00 -0.225667D+00 -0.637077D-01 -0.885269D+00 -0.186229D+01
      8 -0.828295D-01 -0.325210D+00  0.159499D-01 -0.186127D+01 -0.344317D+01
      9 -0.878641D-01  0.230802D-01 -0.248032D+00 -0.364712D+00  0.188159D+00
     10 -0.109869D+00 -0.151986D+00 -0.611648D-01 -0.299295D+01 -0.365337D-01
     11 -0.928124D-01 -0.883251D-01 -0.183557D+00 -0.768010D-01 -0.181084D+01
     12 -0.913814D-01 -0.154663D+00  0.206310D+00  0.759940D-01 -0.981522D+00
     13 -0.155611D+00 -0.159918D+00  0.113556D-01 -0.295802D+01  0.936460D-01
     14 -0.164220D+00  0.373758D-01  0.148751D+00  0.101783D+00 -0.224868D+01
     15 -0.152505D-02  0.114299D+00  0.350192D+00  0.120706D+00  0.952392D+00
     16  0.125127D+00  0.292134D-01  0.358741D-01 -0.567304D-01  0.116824D-01
     17  0.400803D-01 -0.339202D-01  0.849013D-02  0.131211D-01  0.567771D-01
     18  0.418547D-01  0.523021D-02 -0.306894D-01  0.146351D-01  0.735368D-02
     19  0.517365D-01 -0.502495D-01  0.150088D-01  0.162263D-01  0.832563D-01
     20 -0.101092D+00  0.187738D-01 -0.113284D-01  0.354716D-01 -0.168613D-01
     21  0.183779D-01 -0.641173D-02 -0.510509D-01  0.388555D-02 -0.120730D-02
     22 -0.449832D+01 -0.226223D+00  0.204279D+00  0.914421D-01 -0.488430D-01
     23 -0.430527D+00 -0.150106D+01 -0.175106D+01  0.751889D-01  0.805634D-02
     24  0.293136D+00 -0.173936D+01 -0.381504D+01 -0.158707D-01  0.630813D-02
                6             7             8             9            10 
      6  0.145031D+02
      7 -0.311214D+00  0.424155D+01
      8  0.171773D+00  0.130650D+01  0.671078D+01
      9 -0.440259D+01 -0.258065D+00 -0.195438D+00  0.946956D+01
     10  0.383203D-01 -0.781488D-02  0.286923D-01  0.919367D-02  0.292244D+01
     11 -0.103541D+01  0.130806D-01  0.256090D-01 -0.460694D-01  0.139825D+00
     12 -0.205266D+01  0.115642D-01 -0.414953D-01  0.732948D-01  0.481970D-01
     13  0.118973D+00  0.169302D-01  0.754082D-01  0.430163D-01  0.203568D+00
     14  0.998656D+00  0.972553D-01  0.805102D-03 -0.295588D-01  0.896972D-03
     15 -0.144693D+01  0.677997D-01 -0.436453D-01  0.104781D+00 -0.273462D-01
     16 -0.745650D-02 -0.130371D+01  0.647824D+00  0.638748D+00  0.786185D-02
     17  0.900876D-02  0.599928D+00 -0.225482D+01  0.293607D+00 -0.255025D-02
     18  0.252436D-01  0.580838D+00  0.289943D+00 -0.229110D+01  0.741063D-02
     19 -0.115872D-01 -0.270570D+01 -0.969158D-01  0.132379D-01 -0.397634D-02
     20  0.167715D-01  0.441806D-01 -0.697715D+00 -0.228294D+00 -0.169762D-01
     21  0.401479D-01 -0.347950D-02 -0.189926D+00 -0.268555D+01  0.445018D-02
     22  0.385563D-01  0.195219D-01 -0.174009D-01  0.644551D-02 -0.192581D-01
     23  0.256157D-01  0.270156D-01 -0.162755D-01 -0.548613D-02  0.386314D-01
     24  0.524330D-01 -0.237347D-01 -0.716136D-02 -0.203630D-01 -0.190608D-01
               11            12            13            14            15 
     11  0.152297D+01
     12  0.124677D+01  0.215306D+01
     13  0.768170D-02 -0.389213D-01  0.287785D+01
     14  0.221035D+00  0.240074D-01  0.385687D-01  0.199475D+01
     15  0.101346D+00 -0.386077D+00 -0.119267D+00 -0.114972D+01  0.137885D+01
     16 -0.125818D-01  0.109760D-01  0.210080D-01 -0.216953D-01 -0.214289D-01
     17 -0.369914D-02 -0.272788D-03 -0.727460D-02 -0.684756D-02  0.301988D-02
     18 -0.775377D-02  0.277475D-02 -0.546628D-02  0.362129D-02 -0.849595D-02
     19 -0.189372D-01  0.813355D-02 -0.438565D-02 -0.190844D-01 -0.103206D-01
     20  0.390346D-01 -0.194736D-01 -0.167675D-01  0.335139D-01  0.258454D-01
     21 -0.120727D-01 -0.571115D-02 -0.592869D-02  0.132890D-01 -0.616957D-02
     22  0.405448D-01 -0.245620D-01 -0.134060D-02 -0.335042D-01 -0.861789D-02
     23  0.942103D-01 -0.733501D-01 -0.313443D-01 -0.319564D-01 -0.353963D-02
     24 -0.632557D-01  0.901551D-02 -0.376188D-02 -0.904782D-02  0.138459D-01
               16            17            18            19            20 
     16  0.118000D+01
     17 -0.504387D+00  0.238079D+01
     18 -0.618112D+00 -0.253062D+00  0.222263D+01
     19  0.203802D-01 -0.142805D+00 -0.218849D-01  0.259043D+01
     20 -0.165346D+00 -0.140963D+00 -0.485203D-01  0.238050D+00  0.793758D+00
     21 -0.328985D-01 -0.584701D-01  0.837397D-01  0.236931D-01  0.253958D+00
     22  0.606771D-02  0.388716D-02  0.725068D-03  0.352878D-01 -0.175197D-01
     23  0.152913D-01  0.268759D-02  0.318841D-02  0.668522D-02 -0.295405D-01
     24 -0.570204D-02 -0.232060D-02 -0.410392D-02 -0.162805D-01  0.110420D-01
               21            22            23            24 
     21  0.264041D+01
     22 -0.810012D-02  0.436660D+01
     23  0.840892D-03  0.299059D+00  0.147388D+01
     24 -0.158131D-01 -0.208725D+00  0.180379D+01  0.378002D+01
 Leave Link  701 at Wed May 22 18:35:00 2019, MaxMem=   671088640 cpu:               6.8 elap:               0.3
 (Enter /shared/centos7/gaussian/g16/l702.exe)
 L702 exits ... SP integral derivatives will be done elsewhere.
 Leave Link  702 at Wed May 22 18:35:01 2019, MaxMem=   671088640 cpu:               1.1 elap:               0.1
 (Enter /shared/centos7/gaussian/g16/l703.exe)
 Integral derivatives from FoFJK, PRISM(SPDF).
 Compute integral second derivatives, UseDBF=F ICtDFT=           0.
 ICntrl=    100147.
 Calling FoFJK, ICntrl=    100147 FMM=F ISym2X=0 I1Cent= 0 IOpClX= 1 NMat=1 NMatS=1 NMatT=0.
 FoFJK:  IHMeth= 1 ICntrl=  100147 DoSepK=F KAlg= 0 I1Cent=           0 FoldK=F
 IRaf=         0 NMat=       1 IRICut=       1 DoRegI=T DoRafI=F ISym2E= 0 IDoP0=0 IntGTp=1.
 FoFCou: FMM=F IPFlag=           0 FMFlag=      100000 FMFlg1=         800
         NFxFlg=           0 DoJE=F BraDBF=F KetDBF=F FulRan=T
         wScrn=  0.000000 ICntrl=    100147 IOpCl=  1 I1Cent=           0 NGrid=           0
         NMat0=    1 NMatS0=      1 NMatT0=    0 NMatD0=    1 NMtDS0=    0 NMtDT0=    0
 Symmetry not used in FoFCou.
 FoFCou:  KetSym=F NOpSet=  1 NOpAb=1 NOp=  1.
 FoFCou:  CnvScl= 1.00D+00 Thresh= 1.00D-08 IAcrcy=      12.
 PrismS was handed   670881505 working-precision words and  1827 shell-pairs
 FoFCou: LinMIO=F DoNuc=F BraDBF=F KetDBF=F HaveP=T PDBF=F HaveZ=T HaveW=F
         NIJTC =      10 NIJTAt=       0 NIJTCD=       0 NIJTT =      10
         IJTBeg=       1 IJTEnd=      10 KLTBeg=       1 KLTEnd=      10
         IPTBeg=       1 IPTEnd=      10 IPTBCv=       1 IPTECv=      10
         IZTBeg=       1 IZTEnd=      10 IZTBCv=       1 IZTECv=      10
         IWTBeg=      11 IWTEnd=      10 IWTBCv=      11 IWTECv=      10
         INTBeg=       1 INTEnd=       0 IFTBCv=       1 IFTECv=      10
 NCel replicated for PrismC:     1
 CoulSu-InSpLW:  IPartL=    0 NPrtUS=   20 NPrtUL=    1 DoSpLW=F IThBeg=    0 IThEnd=   19 NThAct=   20.
 CoulSu:  IncDef=  1024 NBBP=        1669878 NTPThr=   100 NPartT=   20 Incr=         834 LDynOK=F GPUOK=T.
 CoulSu:  NPrtUS=  20 ThrOK=T IAlg=1 NPAlg=1 LenDen=           0 LWGrdD=           0 DoCopy=F ISkipM=0
          DoSpLW=F IThBeg=    0 IThEnd=   19.
 Enter PrismC:  IPart=  0 JobTyp=22 DoJE=F Cont=F.
 PrismC:  IPart=     0 DynPar=T LinDyn=F Incr=         834 UseFst=F UseS4=T ISplat=2.
 PrismC was handed    33502927 working-precision words and  1827 shell-pairs
 Enter PrismC:  IPart= 19 JobTyp=22 DoJE=F Cont=F.
 Enter PrismC:  IPart= 16 JobTyp=22 DoJE=F Cont=F.
 PrismC:  IPart=    16 DynPar=T LinDyn=F Incr=         834 UseFst=F UseS4=T ISplat=2.
 PrismC was handed    33502927 working-precision words and  1827 shell-pairs
 PrismC:  IPart=    19 DynPar=T LinDyn=F Incr=         834 UseFst=F UseS4=T ISplat=2.
 PrismC was handed    33502927 working-precision words and  1827 shell-pairs
 Enter PrismC:  IPart= 11 JobTyp=22 DoJE=F Cont=F.
 Enter PrismC:  IPart= 13 JobTyp=22 DoJE=F Cont=F.
 PrismC:  IPart=    13 DynPar=T LinDyn=F Incr=         834 UseFst=F UseS4=T ISplat=2.
 Enter PrismC:  IPart=  3 JobTyp=22 DoJE=F Cont=F.
 PrismC was handed    33502927 working-precision words and  1827 shell-pairs
 PrismC:  IPart=     3 DynPar=T LinDyn=F Incr=         834 UseFst=F UseS4=T ISplat=2.
 PrismC was handed    33502927 working-precision words and  1827 shell-pairs
 PrismC:  IPart=    11 DynPar=T LinDyn=F Incr=         834 UseFst=F UseS4=T ISplat=2.
 PrismC was handed    33502927 working-precision words and  1827 shell-pairs
 Enter PrismC:  IPart=  4 JobTyp=22 DoJE=F Cont=F.
 PrismC:  IPart=     4 DynPar=T LinDyn=F Incr=         834 UseFst=F UseS4=T ISplat=2.
 PrismC was handed    33502927 working-precision words and  1827 shell-pairs
 Enter PrismC:  IPart= 17 JobTyp=22 DoJE=F Cont=F.
 Enter PrismC:  IPart=  8 JobTyp=22 DoJE=F Cont=F.
 PrismC:  IPart=    17 DynPar=T LinDyn=F Incr=         834 UseFst=F UseS4=T ISplat=2.
 PrismC was handed    33502927 working-precision words and  1827 shell-pairs
 PrismC:  IPart=     8 DynPar=T LinDyn=F Incr=         834 UseFst=F UseS4=T ISplat=2.
 PrismC was handed    33502927 working-precision words and  1827 shell-pairs
 Enter PrismC:  IPart=  2 JobTyp=22 DoJE=F Cont=F.
 PrismC:  IPart=     2 DynPar=T LinDyn=F Incr=         834 UseFst=F UseS4=T ISplat=2.
 PrismC was handed    33502927 working-precision words and  1827 shell-pairs
 Enter PrismC:  IPart= 18 JobTyp=22 DoJE=F Cont=F.
 PrismC:  IPart=    18 DynPar=T LinDyn=F Incr=         834 UseFst=F UseS4=T ISplat=2.
 PrismC was handed    33502927 working-precision words and  1827 shell-pairs
 Enter PrismC:  IPart= 12 JobTyp=22 DoJE=F Cont=F.
 Enter PrismC:  IPart=  7 JobTyp=22 DoJE=F Cont=F.
 PrismC:  IPart=    12 DynPar=T LinDyn=F Incr=         834 UseFst=F UseS4=T ISplat=2.
 Enter PrismC:  IPart= 15 JobTyp=22 DoJE=F Cont=F.
 Enter PrismC:  IPart= 14 JobTyp=22 DoJE=F Cont=F.
 PrismC:  IPart=     7 DynPar=T LinDyn=F Incr=         834 UseFst=F UseS4=T ISplat=2.
 PrismC:  IPart=    14 DynPar=T LinDyn=F Incr=         834 UseFst=F UseS4=T ISplat=2.
 Enter PrismC:  IPart=  5 JobTyp=22 DoJE=F Cont=F.
 Enter PrismC:  IPart=  1 JobTyp=22 DoJE=F Cont=F.
 PrismC was handed    33502927 working-precision words and  1827 shell-pairs
 PrismC was handed    33502927 working-precision words and  1827 shell-pairs
 PrismC:  IPart=    15 DynPar=T LinDyn=F Incr=         834 UseFst=F UseS4=T ISplat=2.
 PrismC was handed    33502927 working-precision words and  1827 shell-pairs
 PrismC was handed    33502927 working-precision words and  1827 shell-pairs
 Enter PrismC:  IPart= 10 JobTyp=22 DoJE=F Cont=F.
 PrismC:  IPart=     1 DynPar=T LinDyn=F Incr=         834 UseFst=F UseS4=T ISplat=2.
 PrismC was handed    33502927 working-precision words and  1827 shell-pairs
 Enter PrismC:  IPart=  9 JobTyp=22 DoJE=F Cont=F.
 PrismC:  IPart=    10 DynPar=T LinDyn=F Incr=         834 UseFst=F UseS4=T ISplat=2.
 PrismC:  IPart=     9 DynPar=T LinDyn=F Incr=         834 UseFst=F UseS4=T ISplat=2.
 Enter PrismC:  IPart=  6 JobTyp=22 DoJE=F Cont=F.
 PrismC:  IPart=     5 DynPar=T LinDyn=F Incr=         834 UseFst=F UseS4=T ISplat=2.
 PrismC was handed    33502927 working-precision words and  1827 shell-pairs
 PrismC:  IPart=     6 DynPar=T LinDyn=F Incr=         834 UseFst=F UseS4=T ISplat=2.
 PrismC was handed    33502927 working-precision words and  1827 shell-pairs
 PrismC was handed    33502927 working-precision words and  1827 shell-pairs
 PrismC was handed    33502927 working-precision words and  1827 shell-pairs
 IPart= 15 NShTot=       83880 NShNF=       83880 NShFF=           0 MinMC=       7
           NShCPU=       83880 NBCPU=        3417 AvBCPU=        24.5
           NShGPU=           0 NBGPU=           0 AvBGPU=         0.0
 IPart= 19 NShTot=       88747 NShNF=       88747 NShFF=           0 MinMC=       7
           NShCPU=       88747 NBCPU=        3599 AvBCPU=        24.7
           NShGPU=           0 NBGPU=           0 AvBGPU=         0.0
 IPart=  2 NShTot=       78520 NShNF=       78520 NShFF=           0 MinMC=       7
           NShCPU=       78520 NBCPU=        3541 AvBCPU=        22.2
           NShGPU=           0 NBGPU=           0 AvBGPU=         0.0
 IPart= 17 NShTot=       69252 NShNF=       69252 NShFF=           0 MinMC=       7
           NShCPU=       69252 NBCPU=        3088 AvBCPU=        22.4
           NShGPU=           0 NBGPU=           0 AvBGPU=         0.0
 IPart=  9 NShTot=       65506 NShNF=       65506 NShFF=           0 MinMC=       7
           NShCPU=       65506 NBCPU=        3057 AvBCPU=        21.4
           NShGPU=           0 NBGPU=           0 AvBGPU=         0.0
 IPart= 18 NShTot=       62298 NShNF=       62298 NShFF=           0 MinMC=       7
           NShCPU=       62298 NBCPU=        2828 AvBCPU=        22.0
           NShGPU=           0 NBGPU=           0 AvBGPU=         0.0
 IPart=  8 NShTot=       76087 NShNF=       76087 NShFF=           0 MinMC=       7
           NShCPU=       76087 NBCPU=        3234 AvBCPU=        23.5
           NShGPU=           0 NBGPU=           0 AvBGPU=         0.0
 IPart=  6 NShTot=       66155 NShNF=       66155 NShFF=           0 MinMC=       7
           NShCPU=       66155 NBCPU=        2540 AvBCPU=        26.0
           NShGPU=           0 NBGPU=           0 AvBGPU=         0.0
 IPart=  7 NShTot=       53689 NShNF=       53689 NShFF=           0 MinMC=       7
           NShCPU=       53689 NBCPU=        2361 AvBCPU=        22.7
           NShGPU=           0 NBGPU=           0 AvBGPU=         0.0
 IPart= 13 NShTot=       72160 NShNF=       72160 NShFF=           0 MinMC=       7
           NShCPU=       72160 NBCPU=        3209 AvBCPU=        22.5
           NShGPU=           0 NBGPU=           0 AvBGPU=         0.0
 IPart=  0 NShTot=       70875 NShNF=       70875 NShFF=           0 MinMC=       7
           NShCPU=       70875 NBCPU=        3200 AvBCPU=        22.1
           NShGPU=           0 NBGPU=           0 AvBGPU=         0.0
 IPart= 16 NShTot=       65443 NShNF=       65443 NShFF=           0 MinMC=       7
           NShCPU=       65443 NBCPU=        2455 AvBCPU=        26.7
           NShGPU=           0 NBGPU=           0 AvBGPU=         0.0
 IPart=  4 NShTot=       64036 NShNF=       64036 NShFF=           0 MinMC=       7
           NShCPU=       64036 NBCPU=        2792 AvBCPU=        22.9
           NShGPU=           0 NBGPU=           0 AvBGPU=         0.0
 IPart= 10 NShTot=       61804 NShNF=       61804 NShFF=           0 MinMC=       7
           NShCPU=       61804 NBCPU=        2456 AvBCPU=        25.2
           NShGPU=           0 NBGPU=           0 AvBGPU=         0.0
 IPart=  5 NShTot=       71703 NShNF=       71703 NShFF=           0 MinMC=       7
           NShCPU=       71703 NBCPU=        3275 AvBCPU=        21.9
           NShGPU=           0 NBGPU=           0 AvBGPU=         0.0
 IPart= 11 NShTot=       71559 NShNF=       71559 NShFF=           0 MinMC=       7
           NShCPU=       71559 NBCPU=        3045 AvBCPU=        23.5
           NShGPU=           0 NBGPU=           0 AvBGPU=         0.0
 IPart=  1 NShTot=       75780 NShNF=       75780 NShFF=           0 MinMC=       7
           NShCPU=       75780 NBCPU=        3346 AvBCPU=        22.6
           NShGPU=           0 NBGPU=           0 AvBGPU=         0.0
 IPart= 14 NShTot=       79293 NShNF=       79293 NShFF=           0 MinMC=       7
           NShCPU=       79293 NBCPU=        3474 AvBCPU=        22.8
           NShGPU=           0 NBGPU=           0 AvBGPU=         0.0
 IPart=  3 NShTot=       60815 NShNF=       60815 NShFF=           0 MinMC=       7
           NShCPU=       60815 NBCPU=        2490 AvBCPU=        24.4
           NShGPU=           0 NBGPU=           0 AvBGPU=         0.0
 IPart= 12 NShTot=       85016 NShNF=       85016 NShFF=           0 MinMC=       7
           NShCPU=       85016 NBCPU=        3763 AvBCPU=        22.6
           NShGPU=           0 NBGPU=           0 AvBGPU=         0.0
 CoulSu:  NxtVal=        1793935 LenVP=       33502928 MinMC=       7.
 ReadGW:  IGet=0 IStart=           1 Next=           1 LGW=           0.
 Remaining memory in FofDFT      639.94 Mw
 CkSvGd:  ISavGI=        -1 IRadAn=       5 IRASav=       5 ISavGd=        -1.
 CalDSu-InSpLW:  IPartL=    0 NPrtUS=   20 NPrtUL=    1 DoSpLW=F IThBeg=    0 IThEnd=   19 NThAct=   20.
 CalDSu:  NPrtUS=  20 ThrOK=T IAlg=1 NPAlg=2 DoDPD=T LenP=       16290 LenD1P=             0 GPUOK=F
          ISkipM=0 DoSpLW=F IThBeg=    0 IThEnd=   19.
 IPart=  0 IRanGd=          0 ScrnBf=T ScrnGd=T RCrit=4.00D+00 DoMicB=T.
 IPart= 19         8056 of         9082 points in       9 batches and       55 microbatches, Max-NSigAt=       8 Max-NSgAt2=       8
 IPart=  7         8087 of         8450 points in       7 batches and       48 microbatches, Max-NSigAt=       8 Max-NSgAt2=       8
 IPart= 14         7737 of         8288 points in       8 batches and       48 microbatches, Max-NSigAt=       8 Max-NSgAt2=       8
 IPart= 15         8167 of         9572 points in      10 batches and       69 microbatches, Max-NSigAt=       8 Max-NSgAt2=       8
 IPart= 12         8486 of         9398 points in       9 batches and       53 microbatches, Max-NSigAt=       8 Max-NSgAt2=       8
 IPart=  4         6810 of         7508 points in       8 batches and       66 microbatches, Max-NSigAt=       8 Max-NSgAt2=       8
 IPart= 11         9416 of         9974 points in       9 batches and       34 microbatches, Max-NSigAt=       8 Max-NSgAt2=       8
 IPart= 16         8961 of         9446 points in       7 batches and       35 microbatches, Max-NSigAt=       8 Max-NSgAt2=       8
 IPart=  1         6529 of         7136 points in       8 batches and       64 microbatches, Max-NSigAt=       8 Max-NSgAt2=       8
 IPart= 13         6918 of         7452 points in       7 batches and       51 microbatches, Max-NSigAt=       8 Max-NSgAt2=       8
 IPart=  2         8313 of         9166 points in       9 batches and       56 microbatches, Max-NSigAt=       8 Max-NSgAt2=       8
 IPart= 17         9537 of        10928 points in      10 batches and       34 microbatches, Max-NSigAt=       8 Max-NSgAt2=       8
 IPart= 18         7669 of         8372 points in       8 batches and       63 microbatches, Max-NSigAt=       8 Max-NSgAt2=       8
 IPart=  8         8579 of         8920 points in       7 batches and       32 microbatches, Max-NSigAt=       8 Max-NSgAt2=       8
 IPart=  5         8432 of         8864 points in       8 batches and       38 microbatches, Max-NSigAt=       8 Max-NSgAt2=       8
 IPart=  0         7841 of         8336 points in       7 batches and       54 microbatches, Max-NSigAt=       8 Max-NSgAt2=       8
 IPart=  6         7218 of         7712 points in       8 batches and       49 microbatches, Max-NSigAt=       8 Max-NSgAt2=       8
 IPart=  3         8040 of         8470 points in       6 batches and       51 microbatches, Max-NSigAt=       8 Max-NSgAt2=       8
 IPart=  9         9479 of         9686 points in       7 batches and       36 microbatches, Max-NSigAt=       8 Max-NSgAt2=       8
 IPart= 10        10382 of        11154 points in      10 batches and       56 microbatches, Max-NSigAt=       8 Max-NSgAt2=       8
 Polarizability after L703:
                1             2             3 
      1  0.000000D+00
      2  0.000000D+00  0.000000D+00
      3  0.000000D+00  0.000000D+00  0.000000D+00
 Dipole Derivatives after L703:
                 1             2             3             4             5 
      1  -0.937572D-01 -0.422716D+00  0.226577D+00 -0.333350D+00 -0.954318D-01
      2   0.724712D-01 -0.901813D+00  0.299827D+00  0.184974D-02 -0.603151D+00
      3   0.252963D-01  0.278395D+00 -0.526121D+00 -0.102874D-01 -0.600533D-01
                 6             7             8             9            10 
      1  -0.197732D-01 -0.112863D+01  0.167842D+00 -0.526711D+00  0.148520D+00
      2  -0.600026D-01 -0.120730D+00 -0.924121D+00  0.535950D-01 -0.115741D-01
      3  -0.652594D+00 -0.204636D+00 -0.429234D-01 -0.235004D+00  0.504250D-01
                11            12            13            14            15 
      1   0.293937D-03  0.530589D-01  0.140619D+00  0.231922D-01 -0.146905D-01
      2   0.475884D+00 -0.286363D+00  0.764704D-02  0.283912D+00  0.259304D+00
      3  -0.205263D+00  0.373894D+00 -0.256769D-01  0.146969D+00  0.413306D+00
                16            17            18            19            20 
      1   0.894676D+00  0.348754D+00  0.395439D+00  0.169004D+00 -0.475822D+00
      2   0.112851D+00  0.191105D+00  0.497470D-01 -0.956880D-02  0.758082D+00
      3   0.117410D+00  0.592317D-01  0.147938D+00  0.631714D-02  0.298643D-01
                21            22            23            24 
      1   0.936622D-01  0.202917D+00  0.453888D+00 -0.207562D+00
      2  -0.658320D-01 -0.529457D-01  0.720103D+00 -0.250276D+00
      3   0.894124D-01  0.411518D-01 -0.206220D+00  0.389169D+00
 Hessian after L703:
                1             2             3             4             5 
      1  0.330322D+00
      2  0.715517D-01  0.482216D+00
      3  0.791690D-01 -0.188077D+00  0.188553D+00
      4 -0.205387D+00 -0.108411D+00 -0.107892D-01  0.461506D+00
      5 -0.658064D-01 -0.141909D+00  0.972237D-02  0.361983D-01  0.535727D+00
      6 -0.282642D-01 -0.148916D-02 -0.706686D-01  0.173331D-01 -0.321574D-01
      7 -0.425307D-01  0.936341D-02  0.128791D-02 -0.150718D+00  0.341774D-01
      8 -0.271212D-01  0.741001D-02  0.270350D-02  0.591350D-01 -0.120896D+00
      9 -0.478486D-02  0.255535D-02  0.335736D-02 -0.213429D-02 -0.630972D-02
     10 -0.360148D-02 -0.297843D-01  0.216269D-01 -0.496826D-01  0.201627D-01
     11 -0.632168D-02 -0.212160D-01  0.144714D-01  0.772570D-02 -0.152776D+00
     12  0.239778D-02 -0.103808D-02  0.601067D-02 -0.110857D-01  0.120598D+00
     13 -0.142516D-01 -0.263979D-01 -0.269151D-01 -0.461852D-01  0.307590D-02
     14 -0.145600D-01 -0.147266D-01 -0.165849D-01 -0.893666D-03 -0.955329D-01
     15 -0.787668D-02 -0.470579D-02  0.669161D-02  0.704886D-03 -0.870643D-01
     16 -0.599765D-02  0.220930D-02  0.757705D-03 -0.109162D-01 -0.146103D-01
     17  0.398831D-02 -0.325728D-03  0.702227D-04  0.107063D-01  0.103809D-01
     18  0.160461D-02  0.119614D-03  0.133955D-02  0.496059D-02 -0.110712D-02
     19  0.424439D-02 -0.384967D-03 -0.729474D-03  0.292524D-02  0.231271D-01
     20 -0.505749D-03  0.375425D-02 -0.327015D-03 -0.668010D-02 -0.102588D-01
     21 -0.702905D-03 -0.868957D-03 -0.675713D-03  0.214562D-02 -0.188174D-02
     22 -0.627981D-01  0.818539D-01 -0.644077D-01 -0.154177D-02 -0.363246D-01
     23  0.387750D-01 -0.315204D+00  0.178021D+00  0.221950D-02 -0.247355D-01
     24 -0.415428D-01  0.193504D+00 -0.134608D+00 -0.113504D-02 -0.180053D-02
                6             7             8             9            10 
      6  0.513572D+00
      7  0.162124D-01  0.484383D+00
      8 -0.152949D-01  0.391309D-01  0.560910D+00
[...]
     11 -0.168209D-02  0.234152D-04 -0.311991D-03 -0.571665D-01  0.535935D-02
     12 -0.456257D-03  0.688160D-04 -0.456119D-02 -0.296162D-01 -0.291107D-01
     13 -0.194989D-02  0.437466D-02  0.327705D-02 -0.441759D-01  0.204328D-01
     14  0.134413D-03 -0.120866D-02 -0.246735D-02  0.217385D-01 -0.789746D-02
     15  0.463119D-02 -0.993073D-02 -0.968921D-03  0.176746D-01 -0.544172D-02
     16 -0.992090D-02  0.555197D-02  0.687582D-03 -0.177292D-01  0.510480D-02
     17  0.549381D-02  0.461617D-02  0.251027D-03 -0.920889D-04  0.475674D-03
     18 -0.588738D-03  0.177039D-02 -0.848716D-03  0.640385D-03  0.377107D-02
     19  0.773157D-03  0.732000D-04 -0.256206D-02  0.167315D-01 -0.173404D-01
     20 -0.872063D-03 -0.805555D-03  0.221786D-02 -0.160142D-01  0.152776D-01
     21  0.117199D-02  0.297532D-03  0.458663D-02  0.916418D-03  0.184492D-01
     22 -0.576965D-03 -0.160638D-02  0.472053D-02  0.182836D-02  0.175975D-01
     23  0.212403D-03  0.180550D-02 -0.415225D-02 -0.101809D-01 -0.156613D-01
     24 -0.153655D-02 -0.984105D-04 -0.401835D-02 -0.926891D-02 -0.165131D-01
     25  0.154845D-02  0.519295D-03 -0.334905D-03  0.889179D-02 -0.699918D-03
     26 -0.200510D-03 -0.138462D-02 -0.201003D-03  0.980373D-02 -0.155166D-02
               11            12            13            14            15 
     11  0.748666D-01
     12  0.169625D-01  0.654096D-01
     13 -0.288278D-01 -0.452598D-02  0.749495D-01
     14 -0.594388D-02 -0.180080D-01 -0.202958D-01  0.315539D-01
     15 -0.269136D-02 -0.173647D-02 -0.105730D-01  0.226868D-02  0.718854D-01
     16  0.140528D-02  0.122948D-02  0.132578D-01 -0.299261D-02 -0.375647D-01
     17  0.127086D-02  0.328091D-03 -0.249819D-02  0.739312D-03 -0.336572D-01
     18 -0.582747D-02 -0.205967D-01  0.203029D-01  0.201698D-03 -0.235605D-02
     19 -0.138331D-01  0.237624D-01  0.312685D-02 -0.146608D-01  0.195332D-02
     20  0.176995D-01 -0.533588D-02 -0.231146D-01  0.151762D-01  0.339237D-03
     21 -0.177618D-01 -0.348189D-02  0.269329D-02 -0.419098D-03 -0.737174D-04
     22 -0.178391D-01 -0.253725D-02  0.189747D-02 -0.579267D-03  0.533310D-03
     23  0.116726D-02  0.869360D-02  0.855200D-02  0.751598D-02 -0.349508D-02
     24  0.108998D-02  0.963825D-02  0.775617D-02  0.735581D-02 -0.288805D-02
     25  0.160758D-01 -0.662660D-02 -0.104681D-01 -0.766193D-02  0.139024D-02
     26  0.159986D-01 -0.568196D-02 -0.112639D-01 -0.782210D-02  0.199727D-02
               16            17            18            19            20 
     16  0.718964D-01
     17 -0.333369D-01  0.655347D-01
     18  0.365990D-02 -0.120751D-02  0.163033D-01
     19 -0.151741D-02 -0.550819D-03 -0.604776D-02  0.211679D-01
     20 -0.154869D-02  0.118178D-02 -0.650170D-02 -0.121465D-01  0.224724D-01
     21 -0.615195D-04  0.515769D-03 -0.549835D-02  0.270711D-02  0.394137D-02
     22 -0.187438D-02  0.793386D-03 -0.590324D-02  0.341800D-02  0.395863D-02
     23  0.415991D-02 -0.244721D-03  0.310909D-02 -0.214393D-02 -0.139937D-02
     24  0.234705D-02  0.328957D-04  0.270420D-02 -0.143304D-02 -0.138212D-02
     25 -0.119750D-02  0.202090D-03  0.287942D-02 -0.659207D-03 -0.239715D-02
     26 -0.301036D-02  0.479707D-03  0.247453D-02  0.516861D-04 -0.237989D-02
               21            22            23            24            25 
     21  0.154772D-01
     22  0.133075D-01  0.162533D-01
     23 -0.608113D-02 -0.839863D-02  0.144732D-01
     24 -0.825089D-02 -0.545279D-02  0.121557D-01  0.149538D-01
     25 -0.509728D-02 -0.730239D-02 -0.554131D-02 -0.774642D-02  0.145757D-01
     26 -0.726704D-02 -0.435655D-02 -0.785881D-02 -0.494832D-02  0.123706D-01
               26 
     26  0.152811D-01
 Leave Link  716 at Wed May 22 18:39:58 2019, MaxMem=   671088640 cpu:               1.1 elap:               0.1
 (Enter /shared/centos7/gaussian/g16/l103.exe)

 GradGradGradGradGradGradGradGradGradGradGradGradGradGradGradGradGradGrad
 Berny optimization.
 Red2BG is reusing G-inverse.
 Internal  Forces:  Max     0.000002834 RMS     0.000001249
 Search for a local minimum.
 Step number   1 out of a maximum of    2
 All quantities printed in internal units (Hartrees-Bohrs-Radians)
 Second derivative matrix not updated -- analytic derivatives used.
 ITU=  0
     Eigenvalues ---    0.00132   0.00351   0.00779   0.05876   0.06631
     Eigenvalues ---    0.09593   0.09847   0.10877   0.13539   0.16961
     Eigenvalues ---    0.23109   0.31494   0.32145   0.33154   0.36721
     Eigenvalues ---    0.36950   0.40107   0.54069
 Angle between quadratic step and forces=  72.74 degrees.
 Linear search not attempted -- first point.
 Iteration  1 RMS(Cart)=  0.00007740 RMS(Int)=  0.00000001
 Iteration  2 RMS(Cart)=  0.00000001 RMS(Int)=  0.00000000
 ITry= 1 IFail=0 DXMaxC= 2.89D-04 DCOld= 1.00D+10 DXMaxT= 3.00D-01 DXLimC= 3.00D+00 Rises=F
 Variable       Old X    -DE/DX   Delta X   Delta X   Delta X     New X
                                 (Linear)    (Quad)   (Total)
    R1        2.67843   0.00000   0.00000  -0.00000  -0.00000   2.67842
    R2        1.81540  -0.00000   0.00000  -0.00000  -0.00000   1.81539
    R3        2.80027   0.00000   0.00000   0.00000   0.00000   2.80027
    R4        2.07140   0.00000   0.00000   0.00001   0.00001   2.07141
    R5        2.07137  -0.00000   0.00000  -0.00000  -0.00000   2.07137
    R6        2.03922  -0.00000   0.00000  -0.00000  -0.00000   2.03922
    R7        2.04131   0.00000   0.00000   0.00000   0.00000   2.04132
    A1        1.88201  -0.00000   0.00000  -0.00001  -0.00001   1.88200
    A2        1.96624   0.00000   0.00000   0.00001   0.00001   1.96625
    A3        1.83357  -0.00000   0.00000  -0.00001  -0.00001   1.83356
    A4        1.94047   0.00000   0.00000   0.00002   0.00002   1.94049
    A5        1.93621  -0.00000   0.00000  -0.00001  -0.00001   1.93619
    A6        1.92465  -0.00000   0.00000   0.00000   0.00000   1.92465
    A7        1.85791   0.00000   0.00000  -0.00001  -0.00001   1.85790
    A8        2.11239   0.00000   0.00000  -0.00002  -0.00002   2.11237
    A9        2.07651  -0.00000   0.00000  -0.00002  -0.00002   2.07649
   A10        2.07577   0.00000   0.00000  -0.00001  -0.00001   2.07576
    D1        0.93189   0.00000   0.00000   0.00003   0.00003   0.93192
    D2        3.04167  -0.00000   0.00000   0.00002   0.00002   3.04169
    D3       -1.23868  -0.00000   0.00000   0.00001   0.00001  -1.23867
    D4       -2.69335  -0.00000   0.00000  -0.00029  -0.00029  -2.69364
    D5        0.65602  -0.00000   0.00000  -0.00004  -0.00004   0.65598
    D6        1.53982  -0.00000   0.00000  -0.00028  -0.00028   1.53954
    D7       -1.39400   0.00000   0.00000  -0.00002  -0.00002  -1.39402
    D8       -0.51411  -0.00000   0.00000  -0.00026  -0.00026  -0.51438
    D9        2.83526   0.00000   0.00000  -0.00001  -0.00001   2.83525
         Item               Value     Threshold  Converged?
 Maximum Force            0.000003     0.000450     YES
 RMS     Force            0.000001     0.000300     YES
 Maximum Displacement     0.000289     0.001800     YES
 RMS     Displacement     0.000077     0.001200     YES
 Predicted change in Energy=-4.585106D-10
 Optimization completed.
    -- Stationary point found.
                           ----------------------------
                           !   Optimized Parameters   !
                           ! (Angstroms and Degrees)  !
 --------------------------                            --------------------------
 ! Name  Definition              Value          Derivative Info.                !
 --------------------------------------------------------------------------------
 ! R1    R(1,2)                  1.4174         -DE/DX =    0.0                 !
 ! R2    R(1,8)                  0.9607         -DE/DX =    0.0                 !
 ! R3    R(2,3)                  1.4818         -DE/DX =    0.0                 !
 ! R4    R(2,4)                  1.0961         -DE/DX =    0.0                 !
 ! R5    R(2,5)                  1.0961         -DE/DX =    0.0                 !
 ! R6    R(3,6)                  1.0791         -DE/DX =    0.0                 !
 ! R7    R(3,7)                  1.0802         -DE/DX =    0.0                 !
 ! A1    A(2,1,8)              107.831          -DE/DX =    0.0                 !
 ! A2    A(1,2,3)              112.6574         -DE/DX =    0.0                 !
 ! A3    A(1,2,4)              105.0558         -DE/DX =    0.0                 !
 ! A4    A(1,2,5)              111.1809         -DE/DX =    0.0                 !
 ! A5    A(3,2,4)              110.9364         -DE/DX =    0.0                 !
 ! A6    A(3,2,5)              110.2744         -DE/DX =    0.0                 !
 ! A7    A(4,2,5)              106.4501         -DE/DX =    0.0                 !
 ! A8    A(2,3,6)              121.0309         -DE/DX =    0.0                 !
 ! A9    A(2,3,7)              118.9752         -DE/DX =    0.0                 !
 ! A10   A(6,3,7)              118.9329         -DE/DX =    0.0                 !
 ! D1    D(8,1,2,3)             53.3931         -DE/DX =    0.0                 !
 ! D2    D(8,1,2,4)            174.2747         -DE/DX =    0.0                 !
 ! D3    D(8,1,2,5)            -70.9712         -DE/DX =    0.0                 !
 ! D4    D(1,2,3,6)           -154.3178         -DE/DX =    0.0                 !
 ! D5    D(1,2,3,7)             37.5872         -DE/DX =    0.0                 !
 ! D6    D(4,2,3,6)             88.2249         -DE/DX =    0.0                 !
 ! D7    D(4,2,3,7)            -79.8701         -DE/DX =    0.0                 !
 ! D8    D(5,2,3,6)            -29.4565         -DE/DX =    0.0                 !
 ! D9    D(5,2,3,7)            162.4485         -DE/DX =    0.0                 !
 --------------------------------------------------------------------------------
 GradGradGradGradGradGradGradGradGradGradGradGradGradGradGradGradGradGrad

 Leave Link  103 at Wed May 22 18:39:58 2019, MaxMem=   671088640 cpu:               0.2 elap:               0.0
 (Enter /shared/centos7/gaussian/g16/l9999.exe)

 ----------------------------------------------------------------------

 Electric dipole moment (input orientation):
 (Debye = 10**-18 statcoulomb cm , SI units = C m)
                  (au)            (Debye)         (10**-30 SI)
   Tot        0.604418D+00      0.153628D+01      0.512447D+01
   x         -0.364099D-01     -0.925447D-01     -0.308696D+00
   y         -0.281793D-01     -0.716246D-01     -0.238914D+00
   z         -0.602662D+00     -0.153181D+01     -0.510958D+01

 Dipole polarizability, Alpha (input orientation).
 (esu units = cm**3 , SI units = C**2 m**2 J**-1)
 Alpha(0;0):
               (au)            (10**-24 esu)      (10**-40 SI)
   iso        0.287274D+02      0.425696D+01      0.473651D+01
   aniso      0.582536D+01      0.863230D+00      0.960473D+00
   xx         0.273060D+02      0.404632D+01      0.450214D+01
   yx        -0.678184D+00     -0.100497D+00     -0.111817D+00
   yy         0.288781D+02      0.427930D+01      0.476136D+01
   zx        -0.252914D+01     -0.374780D+00     -0.416999D+00
   zy        -0.162054D+01     -0.240139D+00     -0.267191D+00
   zz         0.299981D+02      0.444526D+01      0.494602D+01

 ----------------------------------------------------------------------

 Dipole orientation:
     8         -2.29297396          0.06604688         -1.89867955
     6         -0.44292380          0.84475270         -0.12529208
     6          0.14814969         -1.14052381          1.75906462
     1          1.22708478          1.30985756         -1.25906253
     1         -1.00997415          2.59377562          0.82862834
     1          0.86423240         -0.65689060          3.60615484
     1          0.20737244         -3.08989798          1.15624040
     1         -3.73813550         -0.52371769         -0.97166481

 Electric dipole moment (dipole orientation):
 (Debye = 10**-18 statcoulomb cm , SI units = C m)
                  (au)            (Debye)         (10**-30 SI)
   Tot        0.604418D+00      0.153628D+01      0.512447D+01
   x          0.000000D+00      0.000000D+00      0.000000D+00
   y          0.000000D+00      0.000000D+00      0.000000D+00
   z          0.604418D+00      0.153628D+01      0.512447D+01

 Dipole polarizability, Alpha (dipole orientation).
 (esu units = cm**3 , SI units = C**2 m**2 J**-1)
 Alpha(0;0):
               (au)            (10**-24 esu)      (10**-40 SI)
   iso        0.287274D+02      0.425696D+01      0.473651D+01
   aniso      0.582536D+01      0.863230D+00      0.960473D+00
   xx         0.276215D+02      0.409309D+01      0.455417D+01
   yx         0.455970D+00      0.675678D-01      0.751793D-01
   yy         0.290331D+02      0.430226D+01      0.478691D+01
   zx         0.269452D+01      0.399287D+00      0.444266D+00
   zy        -0.169260D+01     -0.250817D+00     -0.279072D+00
   zz         0.295276D+02      0.437554D+01      0.486844D+01

 ----------------------------------------------------------------------

 Test job not archived.
 1\1\GINC-C0148\Freq\UM062X\CC-pVTZ\C2H5O1(2)\HARMS.N\22-May-2019\0\\#P
  Geom=AllCheck Guess=TCheck SCRF=Check Test GenChk UM062X/CC-pVTZ Freq
 \\Gaussian input prepared by ASE\\0,2\O,-1.1506105737,0.0136370366,1.0
 765423644\C,-0.2293366551,-0.443116588,0.1010696061\C,0.0213317432,0.5
 593734526,-0.961013329\H,0.6892758803,-0.6622426647,0.6575311097\H,-0.
 5579684962,-1.3907648816,-0.3410297027\H,0.3410572416,0.2576211016,-1.
 9465064616\H,0.0703799418,1.6046435438,-0.6929210208\H,-1.9439572976,0
 .3035920196,0.6189303055\\Version=EM64L-G16RevA.03\State=2-A\HF=-154.3
 55317\S2=0.755146\S2-1=0.\S2A=0.750021\RMSD=1.273e-09\RMSF=2.085e-06\Z
 eroPoint=0.0656838\Thermal=0.0701764\Dipole=-0.0364099,-0.0281793,-0.6
 026615\DipoleDeriv=-0.6264182,0.0385438,0.3516225,0.039881,-0.5560446,
 -0.0841469,0.3190097,-0.0600662,-0.6441122,0.5529901,-0.0444439,-0.264
 9637,-0.0586947,0.356482,0.0826945,-0.2306562,0.0763471,0.5362224,-0.3
 550808,0.0168265,-0.0722431,-0.0153923,0.0209822,0.1035034,-0.0439201,
 0.0374272,-0.0102938,-0.07121,0.037458,-0.0349295,0.0287371,0.0430245,
 0.015404,-0.0646018,0.0632025,-0.0399619,0.0076368,-0.0671356,-0.00125
 49,-0.0218837,-0.1417054,-0.0834119,0.0254809,-0.0815479,-0.0305514,0.
 1113022,-0.0097198,0.0737729,0.0004168,0.0211575,-0.0345906,0.0692526,
 -0.0087961,-0.0446211,0.1251852,-0.0062468,0.0158085,-0.0199612,-0.050
 828,0.0032698,0.0267836,-0.0386343,0.0231572,0.2555948,0.0347179,-0.06
 78127,0.046897,0.3069317,-0.0027225,-0.1013488,0.0120677,0.2101607\Pol
 ar=27.3059518,-0.6781842,28.8781286,-2.5291425,-1.6205409,29.9981117\Q
 uadrupole=1.463797,0.3839791,-1.8477761,-0.6079523,0.3836052,0.3077316
 \PG=C01 [X(C2H5O1)]\NImag=0\\0.54333467,-0.19887161,0.13320598,0.08535
 049,-0.01305035,0.36848299,-0.15034973,0.04092343,0.04966797,0.5141064
 7,0.04347271,-0.08617476,-0.03266338,0.00858273,0.55092318,0.08583224,
 -0.05023322,-0.15737241,0.04042333,0.02046820,0.50094185,-0.00672712,-
 0.01147297,0.02617198,-0.05074825,-0.01660217,0.02170986,0.10110839,0.
 00526961,0.01142257,-0.00927865,-0.02080257,-0.16909265,0.07677820,0.0
 1353425,0.59627283,0.01862586,0.01704007,-0.03774576,0.02536334,0.0702
 3405,-0.15472319,-0.13856605,0.05288764,0.56984721,-0.03023108,0.01158
 464,-0.00533726,-0.21119603,0.03150182,-0.10182389,0.00791753,0.001450
 40,-0.00091695,0.24608081,0.01645830,-0.00254813,0.00257094,0.03790586
 ,-0.05479180,0.02208574,0.01438152,-0.00645691,0.01674198,-0.04661138,
 0.05978239,0.02886358,-0.00912317,0.01007727,-0.12393084,0.02358731,-0
 .11395446,-0.01336862,0.01012455,-0.01610979,0.11309086,-0.02506589,0.
 12833765,0.00428745,0.02586070,0.01852712,-0.08086788,-0.07531540,-0.0
 3417408,0.00073702,-0.00193952,-0.00370675,-0.00920146,-0.02350432,-0.
 01095741,0.08304365,0.00693280,-0.00671586,-0.01124338,-0.07355832,-0.
 22990266,-0.08052024,-0.00723249,-0.02276553,-0.00569364,0.00066996,0.
 00514141,0.00147431,0.07436045,0.25540791,0.00503182,-0.02409443,-0.01
 806455,-0.03036883,-0.08010830,-0.08458626,0.00545321,0.02326234,0.009
 72730,-0.00844046,-0.01525273,-0.00554858,0.02889051,0.09282884,0.1005
 2865,-0.00136073,-0.00006545,0.00310920,0.00288005,0.00031971,0.000629
 00,-0.03911592,0.02411162,0.09609935,-0.00100541,0.00015434,0.00072273
 ,-0.00005849,0.00068340,0.00008539,0.03531266,-0.00183208,-0.00116988,
 0.00470525,-0.00575115,0.01065470,0.01527714,0.02220375,-0.08153211,-0
 .07914556,0.00074603,-0.00072191,0.00064879,-0.00018747,0.00076527,-0.
 00112575,-0.02380609,0.07403737,0.00158762,0.00307378,-0.00279767,0.00
 515094,-0.01229197,-0.00855927,0.09109329,-0.07665987,-0.29975610,-0.0
 0041585,0.00076845,-0.00031884,0.00005585,0.00076827,0.00086804,-0.098
 50218,0.08302145,0.31185869,0.00048416,-0.00024243,-0.00168414,0.00209
 832,-0.00068114,0.00073146,-0.01438332,-0.02052226,0.00477315,-0.00013
 037,-0.00097196,0.00064662,0.00049660,-0.00178258,0.00025568,0.0031112
 2,0.00840187,0.00177550,0.00869518,-0.00016251,0.00350626,-0.00049348,
 -0.00044275,-0.01605130,-0.00990187,-0.01385333,-0.32992046,-0.0715396
 9,0.00015951,-0.00000829,0.00009784,-0.00001838,-0.00147076,0.00345534
 ,-0.00155482,-0.00168815,0.00134566,0.01634736,0.34608629,-0.00174709,
 -0.00218442,0.00231503,0.00123694,0.02234511,0.00875022,0.00799601,-0.
 07604944,-0.07242882,-0.00021512,-0.00031624,0.00001645,0.00103093,0.0
 0289504,-0.00284754,-0.00209001,-0.02328586,-0.00121331,-0.00667082,0.
 07669504,0.06515260,-0.35943763,0.13228370,-0.17580537,-0.02592297,0.0
 0872173,-0.01332792,0.00121166,-0.00110153,-0.00167196,-0.00223401,0.0
 0218765,0.00493307,0.00156311,-0.00007323,-0.00090732,0.00023662,0.000
 22513,-0.00074517,-0.00037178,-0.00047507,0.00045917,0.38495500,0.1287
 3278,-0.05152618,0.05945304,0.01314278,-0.00556470,0.00604605,-0.00095
 856,0.00207227,-0.00052485,0.00049902,-0.00039676,-0.00174374,0.000743
 93,-0.00045977,0.00103469,0.00015729,-0.00034529,-0.00002576,-0.000548
 86,-0.00045359,-0.00009924,-0.14176838,0.05667402,-0.22354451,0.078571
 74,-0.16489490,0.03245715,-0.01157101,0.00950352,-0.00048968,-0.001064
 77,0.00118915,0.00405866,-0.00153225,-0.00249971,0.00033382,-0.0005092
 2,-0.00007707,-0.00005348,-0.00009547,-0.00008154,0.00017256,0.0003411
 5,0.00025537,0.18706549,-0.06414018,0.15660519\\0.00000022,-0.00000167
 ,-0.00000262,0.00000579,0.00000213,0.00000302,0.00000201,-0.00000084,0
 .00000359,-0.00000174,0.00000126,-0.00000102,-0.00000017,-0.00000098,0
 .00000065,-0.00000033,-0.00000028,-0.00000083,-0.00000214,0.00000036,-
 0.00000133,-0.00000363,0.00000003,-0.00000146\\\@


 EXPERIMENTALISTS THINK SILICON IS REALLY FUN TO USE
     ITS PLACE IN NOVEL COMPOUNDS IS CERTAIN TO AMUSE
 THEY SIT ALL DAY IN LABORATORIES MAKING ALL THIS SLUDGE
     "LOADED WITH THE SILICON THEY SAY", TO ME IT LOOKS LIKE FUDGE.
 FOR HAPPY THOUGH THEY BE WITH CRUD, I'D LIKE TO KNOW A LITTLE
      ABOUT THE PI BONDS ON THE EDGE AND SIGMAS IN THE MIDDLE.

 SO LETS DERIVE A WAVEFUNCTION.....6-31G*
     USE AN OPTIMAL GEOMETRY AND SEE WHERE ELECTRONS ARE.
 BUT WHAT OF CORRELATION?  ASKS THE WIRY LITTLE SKEPTIC.
     WE'LL THROW IN PERTURBATION AS AN ELECTRON ANTISEPTIC.
 AND WHEN THE PROGRAM GIVES US ANSWERS IN THEM WE CAN TRUST
     SINCE NOBODY CAN MAKE THE STUFF, WE HAVE NO CHOICE, WE MUST.

 SO THEORY GUYS HAVE GOT IT MADE, IN ROOMS FREE OF POLLUTION.
     INSTEAD OF PROBLEMS WITH THE REFLUX, THEY HAVE ONLY SOLUTIONS.
 AND WHEN THE FEDS ANNOUNCE THE LIST OF CARCINOGENIC TERRORS,
     THE THEORISTS SIT SAFELY AT THEIR TERMINALS FIXING ERRORS.
 IN OTHER WORDS, EXPERIMENTALISTS WILL LIKELY DIE OF CANCER
     FROM WORKING HARD YET FRUITLESSLY...TILL THEORY GIVES THE ANSWER.
          -- THOMAS A. HOLME, 1983
 Job cpu time:       0 days  0 hours 32 minutes 33.8 seconds.
 Elapsed time:       0 days  0 hours  1 minutes 38.0 seconds.
 File lengths (MBytes):  RWF=   1312 Int=      0 D2E=      0 Chk=     32 Scr=     32
 Normal termination of Gaussian 16 at Wed May 22 18:39:58 2019.
