 Entering Gaussian System, Link 0=g16
 Input=/scratch/harms.n/autotst-2.0-QMScratch/species/[CH2]CO/conformers/[CH2]CO_Y.com
 Output=/scratch/harms.n/autotst-2.0-QMScratch/species/[CH2]CO/conformers/[CH2]CO_Y.log
 Initial command:
 /shared/centos7/gaussian/g16/l1.exe "/scratch/harms.n/gauss_scrdir/Gau-36004.inp" -scrdir="/scratch/harms.n/gauss_scrdir/"
 Entering Link 1 = /shared/centos7/gaussian/g16/l1.exe PID=     36005.
  
 Copyright (c) 1988,1990,1992,1993,1995,1998,2003,2009,2016,
            Gaussian, Inc.  All Rights Reserved.
  
 This is part of the Gaussian(R) 16 program.  It is based on
 the Gaussian(R) 09 system (copyright 2009, Gaussian, Inc.),
 the Gaussian(R) 03 system (copyright 2003, Gaussian, Inc.),
 the Gaussian(R) 98 system (copyright 1998, Gaussian, Inc.),
 the Gaussian(R) 94 system (copyright 1995, Gaussian, Inc.),
 the Gaussian 92(TM) system (copyright 1992, Gaussian, Inc.),
 the Gaussian 90(TM) system (copyright 1990, Gaussian, Inc.),
 the Gaussian 88(TM) system (copyright 1988, Gaussian, Inc.),
 the Gaussian 86(TM) system (copyright 1986, Carnegie Mellon
 University), and the Gaussian 82(TM) system (copyright 1983,
 Carnegie Mellon University). Gaussian is a federally registered
 trademark of Gaussian, Inc.
  
 This software contains proprietary and confidential information,
 including trade secrets, belonging to Gaussian, Inc.
  
 This software is provided under written license and may be
 used, copied, transmitted, or stored only in accord with that
 written license.
  
 The following legend is applicable only to US Government
 contracts under FAR:
  
                    RESTRICTED RIGHTS LEGEND
  
 Use, reproduction and disclosure by the US Government is
 subject to restrictions as set forth in subparagraphs (a)
 and (c) of the Commercial Computer Software - Restricted
 Rights clause in FAR 52.227-19.
  
 Gaussian, Inc.
 340 Quinnipiac St., Bldg. 40, Wallingford CT 06492
  
  
 ---------------------------------------------------------------
 Warning -- This program may not be used in any manner that
 competes with the business of Gaussian, Inc. or will provide
 assistance to any competitor of Gaussian, Inc.  The licensee
 of this program is prohibited from giving any competitor of
 Gaussian, Inc. access to this program.  By using this program,
 the user acknowledges that Gaussian, Inc. is engaged in the
 business of creating and licensing software in the field of
 computational chemistry and represents and warrants to the
 licensee that it is not a competitor of Gaussian, Inc. and that
 it will not use this program in any manner prohibited above.
 ---------------------------------------------------------------
  

 Cite this work as:
 Gaussian 16, Revision A.03,
 M. J. Frisch, G. W. Trucks, H. B. Schlegel, G. E. Scuseria, 
 M. A. Robb, J. R. Cheeseman, G. Scalmani, V. Barone, 
 G. A. Petersson, H. Nakatsuji, X. Li, M. Caricato, A. V. Marenich, 
 J. Bloino, B. G. Janesko, R. Gomperts, B. Mennucci, H. P. Hratchian, 
 J. V. Ortiz, A. F. Izmaylov, J. L. Sonnenberg, D. Williams-Young, 
 F. Ding, F. Lipparini, F. Egidi, J. Goings, B. Peng, A. Petrone, 
 T. Henderson, D. Ranasinghe, V. G. Zakrzewski, J. Gao, N. Rega, 
 G. Zheng, W. Liang, M. Hada, M. Ehara, K. Toyota, R. Fukuda, 
 J. Hasegawa, M. Ishida, T. Nakajima, Y. Honda, O. Kitao, H. Nakai, 
 T. Vreven, K. Throssell, J. A. Montgomery, Jr., J. E. Peralta, 
 F. Ogliaro, M. J. Bearpark, J. J. Heyd, E. N. Brothers, K. N. Kudin, 
 V. N. Staroverov, T. A. Keith, R. Kobayashi, J. Normand, 
 K. Raghavachari, A. P. Rendell, J. C. Burant, S. S. Iyengar, 
 J. Tomasi, M. Cossi, J. M. Millam, M. Klene, C. Adamo, R. Cammi, 
 J. W. Ochterski, R. L. Martin, K. Morokuma, O. Farkas, 
 J. B. Foresman, and D. J. Fox, Gaussian, Inc., Wallingford CT, 2016.
 
 ******************************************
 Gaussian 16:  EM64L-G16RevA.03 25-Dec-2016
                28-Aug-2019 
 ******************************************
 %nprocshared=20
 Will use up to   20 processors via shared memory.
 %mem=5GB
 ----------------------------------------------------------------------
 #p m062x/cc-pVTZ opt=(calcfc,maxcycles=900,) freq IOP(7/33=1,2/16=3) s
 cf=(maxcycle=900)
 ----------------------------------------------------------------------
 1/6=900,10=4,18=20,19=15,26=3,38=1/1,3;
 2/9=110,12=2,16=3,17=6,18=5,40=1/2;
 3/5=16,6=1,11=2,25=1,30=1,71=2,74=-55,140=1/1,2,3;
 4//1;
 5/5=2,7=900,38=5/2;
 8/6=4,10=90,11=11/1;
 11/6=1,8=1,9=11,15=111,16=1/1,2,10;
 10/6=1,13=1/2;
 6/7=2,8=2,9=2,10=2,28=1/1;
 7/10=1,18=20,25=1,33=1/1,2,3,16;
 1/6=900,10=4,18=20,19=15,26=3/3(2);
 2/9=110,16=3/2;
 99//99;
 2/9=110,16=3/2;
 3/5=16,6=1,11=2,25=1,30=1,71=1,74=-55/1,2,3;
 4/5=5,16=3,69=1/1;
 5/5=2,7=900,38=5/2;
 7/33=1/1,2,3,16;
 1/6=900,18=20,19=15,26=3/3(-5);
 2/9=110,16=3/2;
 6/7=2,8=2,9=2,10=2,19=2,28=1/1;
 99/9=1/99;
 Leave Link    1 at Wed Aug 28 23:38:46 2019, MaxMem=   671088640 cpu:               7.0 elap:               0.9
 (Enter /shared/centos7/gaussian/g16/l101.exe)
 ------------------------------
 Gaussian input prepared by ASE
 ------------------------------
 Symbolic Z-matrix:
 Charge =  0 Multiplicity = 2
 O                    -1.10284  -0.37694  -0.04867 
 C                    -0.01064   0.52057   0.03291 
 C                     1.24659  -0.25408  -0.02312 
 H                    -0.03755   1.25304  -0.78487 
 H                    -0.0599    1.09845   0.97014 
 H                     2.18813   0.24642  -0.18274 
 H                     1.23343  -1.29596   0.25489 
 H                    -1.91712   0.1147    0.07316 
 
 ITRead=  0  0  0  0  0  0  0  0
 MicOpt= -1 -1 -1 -1 -1 -1 -1 -1
 NAtoms=      8 NQM=        8 NQMF=       0 NMMI=      0 NMMIF=      0
                NMic=       0 NMicF=      0.
                    Isotopes and Nuclear Properties:
 (Nuclear quadrupole moments (NQMom) in fm**2, nuclear magnetic moments (NMagM)
  in nuclear magnetons)

  Atom         1           2           3           4           5           6           7           8
 IAtWgt=          16          12          12           1           1           1           1           1
 AtmWgt=  15.9949146  12.0000000  12.0000000   1.0078250   1.0078250   1.0078250   1.0078250   1.0078250
 NucSpn=           0           0           0           1           1           1           1           1
 AtZEff=  -0.0000000  -0.0000000  -0.0000000  -0.0000000  -0.0000000  -0.0000000  -0.0000000  -0.0000000
 NQMom=    0.0000000   0.0000000   0.0000000   0.0000000   0.0000000   0.0000000   0.0000000   0.0000000
 NMagM=    0.0000000   0.0000000   0.0000000   2.7928460   2.7928460   2.7928460   2.7928460   2.7928460
 AtZNuc=   8.0000000   6.0000000   6.0000000   1.0000000   1.0000000   1.0000000   1.0000000   1.0000000
 Leave Link  101 at Wed Aug 28 23:38:47 2019, MaxMem=   671088640 cpu:               8.4 elap:               1.1
 (Enter /shared/centos7/gaussian/g16/l103.exe)

 GradGradGradGradGradGradGradGradGradGradGradGradGradGradGradGradGradGrad
 Berny optimization.
 Initialization pass.
                           ----------------------------
                           !    Initial Parameters    !
                           ! (Angstroms and Degrees)  !
 --------------------------                            --------------------------
 ! Name  Definition              Value          Derivative Info.                !
 --------------------------------------------------------------------------------
 ! R1    R(1,2)                  1.416          calculate D2E/DX2 analytically  !
 ! R2    R(1,8)                  0.959          calculate D2E/DX2 analytically  !
 ! R3    R(2,3)                  1.4778         calculate D2E/DX2 analytically  !
 ! R4    R(2,4)                  1.0982         calculate D2E/DX2 analytically  !
 ! R5    R(2,5)                  1.1022         calculate D2E/DX2 analytically  !
 ! R6    R(3,6)                  1.0782         calculate D2E/DX2 analytically  !
 ! R7    R(3,7)                  1.0784         calculate D2E/DX2 analytically  !
 ! A1    A(2,1,8)              108.8251         calculate D2E/DX2 analytically  !
 ! A2    A(1,2,3)              108.7701         calculate D2E/DX2 analytically  !
 ! A3    A(1,2,4)              111.1592         calculate D2E/DX2 analytically  !
 ! A4    A(1,2,5)              110.2947         calculate D2E/DX2 analytically  !
 ! A5    A(3,2,4)              110.0135         calculate D2E/DX2 analytically  !
 ! A6    A(3,2,5)              110.1879         calculate D2E/DX2 analytically  !
 ! A7    A(4,2,5)              106.4047         calculate D2E/DX2 analytically  !
 ! A8    A(2,3,6)              120.3456         calculate D2E/DX2 analytically  !
 ! A9    A(2,3,7)              119.0959         calculate D2E/DX2 analytically  !
 ! A10   A(6,3,7)              119.8222         calculate D2E/DX2 analytically  !
 ! D1    D(8,1,2,3)            174.5583         calculate D2E/DX2 analytically  !
 ! D2    D(8,1,2,4)            -64.1674         calculate D2E/DX2 analytically  !
 ! D3    D(8,1,2,5)             53.6086         calculate D2E/DX2 analytically  !
 ! D4    D(1,2,3,6)            167.173          calculate D2E/DX2 analytically  !
 ! D5    D(1,2,3,7)            -22.6737         calculate D2E/DX2 analytically  !
 ! D6    D(4,2,3,6)             45.1999         calculate D2E/DX2 analytically  !
 ! D7    D(4,2,3,7)           -144.6468         calculate D2E/DX2 analytically  !
 ! D8    D(5,2,3,6)            -71.8117         calculate D2E/DX2 analytically  !
 ! D9    D(5,2,3,7)             98.3416         calculate D2E/DX2 analytically  !
 --------------------------------------------------------------------------------
 Trust Radius=3.00D-01 FncErr=1.00D-07 GrdErr=1.00D-06 EigMax=2.50D+02 EigMin=1.00D-04
 Number of steps in this run=    100 maximum allowed number of steps=    100.
 GradGradGradGradGradGradGradGradGradGradGradGradGradGradGradGradGradGrad

 Leave Link  103 at Wed Aug 28 23:38:47 2019, MaxMem=   671088640 cpu:               0.9 elap:               0.1
 (Enter /shared/centos7/gaussian/g16/l202.exe)
                          Input orientation:                          
 ---------------------------------------------------------------------
 Center     Atomic      Atomic             Coordinates (Angstroms)
 Number     Number       Type             X           Y           Z
 ---------------------------------------------------------------------
      1          8           0       -1.102836   -0.376943   -0.048667
      2          6           0       -0.010644    0.520565    0.032910
      3          6           0        1.246593   -0.254081   -0.023118
      4          1           0       -0.037550    1.253041   -0.784868
      5          1           0       -0.059897    1.098446    0.970138
      6          1           0        2.188132    0.246419   -0.182736
      7          1           0        1.233425   -1.295959    0.254889
      8          1           0       -1.917118    0.114695    0.073159
 ---------------------------------------------------------------------
                    Distance matrix (angstroms):
                    1          2          3          4          5
     1  O    0.000000
     2  C    1.416001   0.000000
     3  C    2.352778   1.477789   0.000000
     4  H    2.081748   1.098183   2.121486   0.000000
     5  H    2.074237   1.102165   2.126688   1.761944   0.000000
     6  H    3.352167   2.226269   1.078181   2.515852   2.666215
     7  H    2.528804   2.212858   1.078411   3.032140   2.813794
     8  H    0.958960   1.949614   3.186586   2.358987   2.285084
                    6          7          8
     6  H    0.000000
     7  H    1.865988   0.000000
     8  H    4.115326   3.456717   0.000000
 Stoichiometry    C2H5O(2)
 Framework group  C1[X(C2H5O)]
 Deg. of freedom    18
 Full point group                 C1      NOp   1
 Largest Abelian subgroup         C1      NOp   1
 Largest concise Abelian subgroup C1      NOp   1
                         Standard orientation:                         
 ---------------------------------------------------------------------
 Center     Atomic      Atomic             Coordinates (Angstroms)
 Number     Number       Type             X           Y           Z
 ---------------------------------------------------------------------
      1          8           0       -1.102836   -0.376944   -0.048667
      2          6           0       -0.010644    0.520565    0.032910
      3          6           0        1.246593   -0.254081   -0.023118
      4          1           0       -0.037550    1.253041   -0.784868
      5          1           0       -0.059897    1.098446    0.970138
      6          1           0        2.188132    0.246420   -0.182736
      7          1           0        1.233426   -1.295959    0.254889
      8          1           0       -1.917118    0.114694    0.073159
 ---------------------------------------------------------------------
 Rotational constants (GHZ):          40.4281842          10.1284863           8.5718619
 Leave Link  202 at Wed Aug 28 23:38:47 2019, MaxMem=   671088640 cpu:               3.6 elap:               0.5
 (Enter /shared/centos7/gaussian/g16/l301.exe)
 Standard basis: CC-pVTZ (5D, 7F)
 Ernie: Thresh=  0.10000D-02 Tol=  0.10000D-05 Strict=F.
 Ernie:  9 primitive shells out of 118 were deleted.
 There are   180 symmetry adapted cartesian basis functions of A   symmetry.
 There are   160 symmetry adapted basis functions of A   symmetry.
   160 basis functions,   241 primitive gaussians,   180 cartesian basis functions
    13 alpha electrons       12 beta electrons
       nuclear repulsion energy        75.2808213649 Hartrees.
 IExCor= 4336 DFT=T Ex+Corr=M062X ExCW=0 ScaHFX=  0.540000
 ScaDFX=  1.000000  1.000000  1.000000  1.000000 ScalE2=  1.000000  1.000000
 IRadAn=      5 IRanWt=     -1 IRanGd=            0 ICorTp=0 IEmpDi=  4
 NAtoms=    8 NActive=    8 NUniq=    8 SFac= 1.00D+00 NAtFMM=   60 NAOKFM=F Big=F
 Integral buffers will be    131072 words long.
 Raffenetti 2 integral format.
 Two-electron integral symmetry is turned on.
 Leave Link  301 at Wed Aug 28 23:38:48 2019, MaxMem=   671088640 cpu:               3.7 elap:               0.5
 (Enter /shared/centos7/gaussian/g16/l302.exe)
 NPDir=0 NMtPBC=     1 NCelOv=     1 NCel=       1 NClECP=     1 NCelD=      1
         NCelK=      1 NCelE2=     1 NClLst=     1 CellRange=     0.0.
 One-electron integrals computed using PRISM.
 One-electron integral symmetry used in STVInt
 NBasis=   160 RedAO= T EigKep=  9.46D-04  NBF=   160
 NBsUse=   160 1.00D-06 EigRej= -1.00D+00 NBFU=   160
 Precomputing XC quadrature grid using
 IXCGrd= 4 IRadAn=           5 IRanWt=          -1 IRanGd=           0 AccXCQ= 0.00D+00.
 Generated NRdTot=       0 NPtTot=           0 NUsed=           0 NTot=          32
 NSgBfM=   180   180   180   180   180 MxSgAt=     8 MxSgA2=     8.
 Leave Link  302 at Wed Aug 28 23:39:02 2019, MaxMem=   671088640 cpu:             112.1 elap:              14.0
 (Enter /shared/centos7/gaussian/g16/l303.exe)
 DipDrv:  MaxL=1.
 Leave Link  303 at Wed Aug 28 23:39:03 2019, MaxMem=   671088640 cpu:               9.0 elap:               1.3
 (Enter /shared/centos7/gaussian/g16/l401.exe)
 ExpMin= 1.03D-01 ExpMax= 1.53D+04 ExpMxC= 5.22D+02 IAcc=3 IRadAn=         5 AccDes= 0.00D+00
 Harris functional with IExCor= 1009 and IRadAn=       5 diagonalized for initial guess.
 HarFok:  IExCor= 1009 AccDes= 0.00D+00 IRadAn=         5 IDoV= 1 UseB2=F ITyADJ=14
 ICtDFT=  3500011 ScaDFX=  1.000000  1.000000  1.000000  1.000000
 FoFCou: FMM=F IPFlag=           0 FMFlag=      100000 FMFlg1=           0
         NFxFlg=           0 DoJE=T BraDBF=F KetDBF=T FulRan=T
         wScrn=  0.000000 ICntrl=       500 IOpCl=  0 I1Cent=   200000004 NGrid=           0
         NMat0=    1 NMatS0=      1 NMatT0=    0 NMatD0=    1 NMtDS0=    0 NMtDT0=    0
 Petite list used in FoFCou.
 Harris En= -154.289405170510    
 JPrj=0 DoOrth=F DoCkMO=F.
 Initial guess <Sx>= 0.0000 <Sy>= 0.0000 <Sz>= 0.5000 <S**2>= 0.7500 S= 0.5000
 Leave Link  401 at Wed Aug 28 23:39:10 2019, MaxMem=   671088640 cpu:              51.4 elap:               6.6
 (Enter /shared/centos7/gaussian/g16/l502.exe)
 Keep R1 and R2 ints in memory in canonical form, NReq=186086596.
 FoFCou: FMM=F IPFlag=           0 FMFlag=           0 FMFlg1=           0
         NFxFlg=           0 DoJE=F BraDBF=F KetDBF=F FulRan=T
         wScrn=  0.000000 ICntrl=       600 IOpCl=  0 I1Cent=           0 NGrid=           0
         NMat0=    1 NMatS0=  12880 NMatT0=    0 NMatD0=    1 NMtDS0=    0 NMtDT0=    0
 Symmetry not used in FoFCou.
 Two-electron integral symmetry not used.
 UHF open shell SCF:
 Using DIIS extrapolation, IDIIS=  1040.
 NGot=   671088640 LenX=   505111240 LenY=   505078399
 Requested convergence on RMS density matrix=1.00D-08 within 900 cycles.
 Requested convergence on MAX density matrix=1.00D-06.
 Requested convergence on             energy=1.00D-06.
 No special actions if energy rises.
 Integral accuracy reduced to 1.0D-05 until final iterations.

 Cycle   1  Pass 0  IDiag  1:
 E= -154.244344668352    
 DIIS: error= 2.46D-02 at cycle   1 NSaved=   1.
 NSaved= 1 IEnMin= 1 EnMin= -154.244344668352     IErMin= 1 ErrMin= 2.46D-02
 ErrMax= 2.46D-02  0.00D+00 EMaxC= 1.00D-01 BMatC= 5.50D-01 BMatP= 5.50D-01
 IDIUse=3 WtCom= 7.54D-01 WtEn= 2.46D-01
 Coeff-Com:  0.100D+01
 Coeff-En:   0.100D+01
 Coeff:      0.100D+01
 Gap=     0.281 Goal=   None    Shift=    0.000
 Gap=     0.336 Goal=   None    Shift=    0.000
 GapD=    0.281 DampG=1.000 DampE=0.500 DampFc=0.5000 IDamp=-1.
 Damping current iteration by 5.00D-01
 RMSDP=3.13D-03 MaxDP=1.27D-01              OVMax= 1.42D-01

 Cycle   2  Pass 0  IDiag  1:
 E= -154.298168124073     Delta-E=       -0.053823455721 Rises=F Damp=T
 DIIS: error= 7.56D-03 at cycle   2 NSaved=   2.
 NSaved= 2 IEnMin= 2 EnMin= -154.298168124073     IErMin= 2 ErrMin= 7.56D-03
 ErrMax= 7.56D-03  0.00D+00 EMaxC= 1.00D-01 BMatC= 4.06D-02 BMatP= 5.50D-01
 IDIUse=3 WtCom= 9.24D-01 WtEn= 7.56D-02
 Coeff-Com: -0.459D-01 0.105D+01
 Coeff-En:   0.000D+00 0.100D+01
 Coeff:     -0.425D-01 0.104D+01
 Gap=     0.315 Goal=   None    Shift=    0.000
 Gap=     0.362 Goal=   None    Shift=    0.000
 RMSDP=6.08D-04 MaxDP=2.63D-02 DE=-5.38D-02 OVMax= 6.98D-02

 Cycle   3  Pass 0  IDiag  1:
 E= -154.351858429980     Delta-E=       -0.053690305907 Rises=F Damp=F
 DIIS: error= 3.14D-03 at cycle   3 NSaved=   3.
 NSaved= 3 IEnMin= 3 EnMin= -154.351858429980     IErMin= 3 ErrMin= 3.14D-03
 ErrMax= 3.14D-03  0.00D+00 EMaxC= 1.00D-01 BMatC= 8.51D-03 BMatP= 4.06D-02
 IDIUse=3 WtCom= 9.69D-01 WtEn= 3.14D-02
 Coeff-Com: -0.645D-01 0.286D+00 0.779D+00
 Coeff-En:   0.000D+00 0.000D+00 0.100D+01
 Coeff:     -0.625D-01 0.277D+00 0.786D+00
 Gap=     0.330 Goal=   None    Shift=    0.000
 Gap=     0.333 Goal=   None    Shift=    0.000
 RMSDP=2.22D-04 MaxDP=8.03D-03 DE=-5.37D-02 OVMax= 1.34D-02

 Cycle   4  Pass 0  IDiag  1:
 E= -154.353112691865     Delta-E=       -0.001254261884 Rises=F Damp=F
 DIIS: error= 1.92D-03 at cycle   4 NSaved=   4.
 NSaved= 4 IEnMin= 4 EnMin= -154.353112691865     IErMin= 4 ErrMin= 1.92D-03
 ErrMax= 1.92D-03  0.00D+00 EMaxC= 1.00D-01 BMatC= 2.02D-03 BMatP= 8.51D-03
 IDIUse=3 WtCom= 9.81D-01 WtEn= 1.92D-02
 Coeff-Com: -0.198D-01 0.399D-01 0.355D+00 0.625D+00
 Coeff-En:   0.000D+00 0.000D+00 0.722D-01 0.928D+00
 Coeff:     -0.194D-01 0.391D-01 0.350D+00 0.630D+00
 Gap=     0.324 Goal=   None    Shift=    0.000
 Gap=     0.342 Goal=   None    Shift=    0.000
 RMSDP=8.00D-05 MaxDP=2.80D-03 DE=-1.25D-03 OVMax= 7.84D-03

 Cycle   5  Pass 0  IDiag  1:
 E= -154.353549496503     Delta-E=       -0.000436804638 Rises=F Damp=F
 DIIS: error= 3.71D-04 at cycle   5 NSaved=   5.
 NSaved= 5 IEnMin= 5 EnMin= -154.353549496503     IErMin= 5 ErrMin= 3.71D-04
 ErrMax= 3.71D-04  0.00D+00 EMaxC= 1.00D-01 BMatC= 6.51D-05 BMatP= 2.02D-03
 IDIUse=3 WtCom= 9.96D-01 WtEn= 3.71D-03
 Coeff-Com:  0.289D-02-0.169D-01-0.194D-01 0.784D-01 0.955D+00
 Coeff-En:   0.000D+00 0.000D+00 0.000D+00 0.000D+00 0.100D+01
 Coeff:      0.287D-02-0.168D-01-0.193D-01 0.781D-01 0.955D+00
 Gap=     0.325 Goal=   None    Shift=    0.000
 Gap=     0.342 Goal=   None    Shift=    0.000
 RMSDP=2.95D-05 MaxDP=1.54D-03 DE=-4.37D-04 OVMax= 4.27D-03

 Cycle   6  Pass 0  IDiag  1:
 E= -154.353583254905     Delta-E=       -0.000033758401 Rises=F Damp=F
 DIIS: error= 1.66D-04 at cycle   6 NSaved=   6.
 NSaved= 6 IEnMin= 6 EnMin= -154.353583254905     IErMin= 6 ErrMin= 1.66D-04
 ErrMax= 1.66D-04  0.00D+00 EMaxC= 1.00D-01 BMatC= 8.40D-06 BMatP= 6.51D-05
 IDIUse=3 WtCom= 9.98D-01 WtEn= 1.66D-03
 Coeff-Com:  0.290D-02-0.687D-02-0.577D-01-0.942D-01 0.209D-01 0.114D+01
 Coeff-En:   0.000D+00 0.000D+00 0.000D+00 0.000D+00 0.000D+00 0.100D+01
 Coeff:      0.290D-02-0.686D-02-0.576D-01-0.941D-01 0.208D-01 0.113D+01
 Gap=     0.326 Goal=   None    Shift=    0.000
 Gap=     0.342 Goal=   None    Shift=    0.000
 RMSDP=1.70D-05 MaxDP=9.53D-04 DE=-3.38D-05 OVMax= 2.39D-03

 Cycle   7  Pass 0  IDiag  1:
 E= -154.353589194815     Delta-E=       -0.000005939910 Rises=F Damp=F
 DIIS: error= 5.02D-05 at cycle   7 NSaved=   7.
 NSaved= 7 IEnMin= 7 EnMin= -154.353589194815     IErMin= 7 ErrMin= 5.02D-05
 ErrMax= 5.02D-05  0.00D+00 EMaxC= 1.00D-01 BMatC= 1.25D-06 BMatP= 8.40D-06
 IDIUse=1 WtCom= 1.00D+00 WtEn= 0.00D+00
 Coeff-Com:  0.547D-03-0.641D-03-0.165D-01-0.364D-01-0.645D-01 0.397D+00
 Coeff-Com:  0.720D+00
 Coeff:      0.547D-03-0.641D-03-0.165D-01-0.364D-01-0.645D-01 0.397D+00
 Coeff:      0.720D+00
 Gap=     0.326 Goal=   None    Shift=    0.000
 Gap=     0.342 Goal=   None    Shift=    0.000
 RMSDP=2.85D-06 MaxDP=1.48D-04 DE=-5.94D-06 OVMax= 3.14D-04

 Initial convergence to 1.0D-05 achieved.  Increase integral accuracy.
 Cycle   8  Pass 1  IDiag  1:
 E= -154.353580652961     Delta-E=        0.000008541854 Rises=F Damp=F
 DIIS: error= 4.32D-05 at cycle   1 NSaved=   1.
 NSaved= 1 IEnMin= 1 EnMin= -154.353580652961     IErMin= 1 ErrMin= 4.32D-05
 ErrMax= 4.32D-05  0.00D+00 EMaxC= 1.00D-01 BMatC= 9.76D-07 BMatP= 9.76D-07
 IDIUse=1 WtCom= 1.00D+00 WtEn= 0.00D+00
 Coeff-Com:  0.100D+01
 Coeff:      0.100D+01
 Gap=     0.326 Goal=   None    Shift=    0.000
 Gap=     0.342 Goal=   None    Shift=    0.000
 RMSDP=2.85D-06 MaxDP=1.48D-04 DE= 8.54D-06 OVMax= 1.29D-04

 Cycle   9  Pass 1  IDiag  1:
 E= -154.353580823118     Delta-E=       -0.000000170157 Rises=F Damp=F
 DIIS: error= 1.05D-05 at cycle   2 NSaved=   2.
 NSaved= 2 IEnMin= 2 EnMin= -154.353580823118     IErMin= 2 ErrMin= 1.05D-05
 ErrMax= 1.05D-05  0.00D+00 EMaxC= 1.00D-01 BMatC= 6.16D-08 BMatP= 9.76D-07
 IDIUse=1 WtCom= 1.00D+00 WtEn= 0.00D+00
 Coeff-Com:  0.246D-01 0.975D+00
 Coeff:      0.246D-01 0.975D+00
 Gap=     0.326 Goal=   None    Shift=    0.000
 Gap=     0.342 Goal=   None    Shift=    0.000
 RMSDP=9.25D-07 MaxDP=2.62D-05 DE=-1.70D-07 OVMax= 6.25D-05

 Cycle  10  Pass 1  IDiag  1:
 E= -154.353580836314     Delta-E=       -0.000000013197 Rises=F Damp=F
 DIIS: error= 8.37D-06 at cycle   3 NSaved=   3.
 NSaved= 3 IEnMin= 3 EnMin= -154.353580836314     IErMin= 3 ErrMin= 8.37D-06
 ErrMax= 8.37D-06  0.00D+00 EMaxC= 1.00D-01 BMatC= 3.54D-08 BMatP= 6.16D-08
 IDIUse=1 WtCom= 1.00D+00 WtEn= 0.00D+00
 Coeff-Com: -0.512D-01 0.428D+00 0.624D+00
 Coeff:     -0.512D-01 0.428D+00 0.624D+00
 Gap=     0.326 Goal=   None    Shift=    0.000
 Gap=     0.342 Goal=   None    Shift=    0.000
 RMSDP=3.56D-07 MaxDP=1.14D-05 DE=-1.32D-08 OVMax= 2.58D-05

 Cycle  11  Pass 1  IDiag  1:
 E= -154.353580844803     Delta-E=       -0.000000008489 Rises=F Damp=F
 DIIS: error= 1.78D-06 at cycle   4 NSaved=   4.
 NSaved= 4 IEnMin= 4 EnMin= -154.353580844803     IErMin= 4 ErrMin= 1.78D-06
 ErrMax= 1.78D-06  0.00D+00 EMaxC= 1.00D-01 BMatC= 1.74D-09 BMatP= 3.54D-08
 IDIUse=1 WtCom= 1.00D+00 WtEn= 0.00D+00
 Coeff-Com: -0.769D-02-0.547D-01 0.577D-01 0.100D+01
 Coeff:     -0.769D-02-0.547D-01 0.577D-01 0.100D+01
 Gap=     0.326 Goal=   None    Shift=    0.000
 Gap=     0.342 Goal=   None    Shift=    0.000
 RMSDP=1.83D-07 MaxDP=6.86D-06 DE=-8.49D-09 OVMax= 1.49D-05

 Cycle  12  Pass 1  IDiag  1:
 E= -154.353580845604     Delta-E=       -0.000000000801 Rises=F Damp=F
 DIIS: error= 9.01D-07 at cycle   5 NSaved=   5.
 NSaved= 5 IEnMin= 5 EnMin= -154.353580845604     IErMin= 5 ErrMin= 9.01D-07
 ErrMax= 9.01D-07  0.00D+00 EMaxC= 1.00D-01 BMatC= 6.96D-10 BMatP= 1.74D-09
 IDIUse=1 WtCom= 1.00D+00 WtEn= 0.00D+00
 Coeff-Com:  0.639D-02-0.118D+00-0.101D+00 0.474D+00 0.738D+00
 Coeff:      0.639D-02-0.118D+00-0.101D+00 0.474D+00 0.738D+00
 Gap=     0.326 Goal=   None    Shift=    0.000
 Gap=     0.342 Goal=   None    Shift=    0.000
 RMSDP=8.93D-08 MaxDP=3.04D-06 DE=-8.01D-10 OVMax= 7.06D-06

 Cycle  13  Pass 1  IDiag  1:
 E= -154.353580845813     Delta-E=       -0.000000000209 Rises=F Damp=F
 DIIS: error= 1.97D-07 at cycle   6 NSaved=   6.
 NSaved= 6 IEnMin= 6 EnMin= -154.353580845813     IErMin= 6 ErrMin= 1.97D-07
 ErrMax= 1.97D-07  0.00D+00 EMaxC= 1.00D-01 BMatC= 3.82D-11 BMatP= 6.96D-10
 IDIUse=1 WtCom= 1.00D+00 WtEn= 0.00D+00
 Coeff-Com:  0.262D-02-0.284D-01-0.356D-01 0.225D-01 0.215D+00 0.824D+00
 Coeff:      0.262D-02-0.284D-01-0.356D-01 0.225D-01 0.215D+00 0.824D+00
 Gap=     0.326 Goal=   None    Shift=    0.000
 Gap=     0.342 Goal=   None    Shift=    0.000
 RMSDP=2.42D-08 MaxDP=6.30D-07 DE=-2.09D-10 OVMax= 2.18D-06

 Cycle  14  Pass 1  IDiag  1:
 E= -154.353580845828     Delta-E=       -0.000000000014 Rises=F Damp=F
 DIIS: error= 6.46D-08 at cycle   7 NSaved=   7.
 NSaved= 7 IEnMin= 7 EnMin= -154.353580845828     IErMin= 7 ErrMin= 6.46D-08
 ErrMax= 6.46D-08  0.00D+00 EMaxC= 1.00D-01 BMatC= 1.69D-12 BMatP= 3.82D-11
 IDIUse=1 WtCom= 1.00D+00 WtEn= 0.00D+00
 Coeff-Com: -0.411D-03 0.859D-02 0.585D-02-0.409D-01-0.554D-01 0.678D-01
 Coeff-Com:  0.101D+01
 Coeff:     -0.411D-03 0.859D-02 0.585D-02-0.409D-01-0.554D-01 0.678D-01
 Coeff:      0.101D+01
 Gap=     0.326 Goal=   None    Shift=    0.000
 Gap=     0.342 Goal=   None    Shift=    0.000
 RMSDP=7.09D-09 MaxDP=2.17D-07 DE=-1.44D-11 OVMax= 7.23D-07

 SCF Done:  E(UM062X) =  -154.353580846     A.U. after   14 cycles
            NFock= 14  Conv=0.71D-08     -V/T= 2.0053
 <Sx>= 0.0000 <Sy>= 0.0000 <Sz>= 0.5000 <S**2>= 0.7552 S= 0.5026
 <L.S>= 0.000000000000E+00
 KE= 1.535351796445D+02 PE=-5.115803385083D+02 EE= 1.284107566530D+02
 Annihilation of the first spin contaminant:
 S**2 before annihilation     0.7552,   after     0.7500
 Leave Link  502 at Wed Aug 28 23:41:05 2019, MaxMem=   671088640 cpu:             903.8 elap:             115.7
 (Enter /shared/centos7/gaussian/g16/l801.exe)
 DoSCS=F DFT=T ScalE2(SS,OS)=  1.000000  1.000000
 Range of M.O.s used for correlation:     1   160
 NBasis=   160 NAE=    13 NBE=    12 NFC=     0 NFV=     0
 NROrb=    160 NOA=    13 NOB=    12 NVA=   147 NVB=   148
 Leave Link  801 at Wed Aug 28 23:41:06 2019, MaxMem=   671088640 cpu:               2.1 elap:               0.4
 (Enter /shared/centos7/gaussian/g16/l1101.exe)
 Using compressed storage, NAtomX=     8.
 Will process      9 centers per pass.
 Leave Link 1101 at Wed Aug 28 23:41:13 2019, MaxMem=   671088640 cpu:              58.4 elap:               7.3
 (Enter /shared/centos7/gaussian/g16/l1102.exe)
 Symmetrizing basis deriv contribution to polar:
 IMax=3 JMax=2 DiffMx= 0.00D+00
 Leave Link 1102 at Wed Aug 28 23:41:14 2019, MaxMem=   671088640 cpu:               6.7 elap:               0.9
 (Enter /shared/centos7/gaussian/g16/l1110.exe)
 Forming Gx(P) for the SCF density, NAtomX=     8.
 Integral derivatives from FoFJK, PRISM(SPDF).
 Do as many integral derivatives as possible in FoFJK.
 G2DrvN: MDV=     671087928.
 G2DrvN: will do     9 centers at a time, making    1 passes.
 Calling FoFCou, ICntrl=  3107 FMM=F I1Cent=   0 AccDes= 0.00D+00.
 FoFJK:  IHMeth= 1 ICntrl=    3107 DoSepK=F KAlg= 0 I1Cent=           0 FoldK=F
 IRaf=         0 NMat=       1 IRICut=       1 DoRegI=T DoRafI=F ISym2E= 0 IDoP0=0 IntGTp=1.
 FoFCou: FMM=F IPFlag=           0 FMFlag=      100000 FMFlg1=           0
         NFxFlg=           0 DoJE=F BraDBF=F KetDBF=F FulRan=T
         wScrn=  0.000000 ICntrl=      3107 IOpCl=  1 I1Cent=           0 NGrid=           0
         NMat0=    1 NMatS0=      1 NMatT0=    0 NMatD0=    1 NMtDS0=    0 NMtDT0=    0
 Symmetry not used in FoFCou.
 End of G2Drv F.D. properties file   721 does not exist.
 End of G2Drv F.D. properties file   722 does not exist.
 End of G2Drv F.D. properties file   788 does not exist.
 Leave Link 1110 at Wed Aug 28 23:42:24 2019, MaxMem=   671088640 cpu:             554.5 elap:              69.3
 (Enter /shared/centos7/gaussian/g16/l1002.exe)
 Minotr:  UHF open shell wavefunction.
          IDoAtm=11111111
          Direct CPHF calculation.
          Differentiating once with respect to nuclear coordinates.
          Requested convergence is 1.0D-08 RMS, and 1.0D-07 maximum.
          Secondary convergence is 1.0D-12 RMS, and 1.0D-12 maximum.
          NewPWx=T KeepS1=F KeepF1=F KeepIn=T MapXYZ=F SortEE=F KeepMc=T.
         2371 words used for storage of precomputed grid.
 Keep R1 and R2 ints in memory in canonical form, NReq=186024337.
 FoFCou: FMM=F IPFlag=           0 FMFlag=           0 FMFlg1=           0
         NFxFlg=           0 DoJE=F BraDBF=F KetDBF=F FulRan=T
         wScrn=  0.000000 ICntrl=       600 IOpCl=  0 I1Cent=           0 NGrid=           0
         NMat0=    1 NMatS0=  12880 NMatT0=    0 NMatD0=    1 NMtDS0=    0 NMtDT0=    0
 Symmetry not used in FoFCou.
 Two-electron integral symmetry not used.
          MDV=     671088640 using IRadAn=       1.
          Solving linear equations simultaneously, MaxMat=       0.
          There are    27 degrees of freedom in the 1st order CPHF.  IDoFFX=6 NUNeed=     0.
     21 vectors produced by pass  0 Test12= 1.37D-14 3.70D-09 XBig12= 1.29D-01 1.28D-01.
 AX will form    21 AO Fock derivatives at one time.
     21 vectors produced by pass  1 Test12= 1.37D-14 3.70D-09 XBig12= 9.79D-03 1.72D-02.
     21 vectors produced by pass  2 Test12= 1.37D-14 3.70D-09 XBig12= 3.39D-04 4.68D-03.
     21 vectors produced by pass  3 Test12= 1.37D-14 3.70D-09 XBig12= 4.47D-06 7.22D-04.
     21 vectors produced by pass  4 Test12= 1.37D-14 3.70D-09 XBig12= 6.53D-08 4.35D-05.
     21 vectors produced by pass  5 Test12= 1.37D-14 3.70D-09 XBig12= 6.71D-10 3.73D-06.
     21 vectors produced by pass  6 Test12= 1.37D-14 3.70D-09 XBig12= 5.75D-12 3.44D-07.
      9 vectors produced by pass  7 Test12= 1.37D-14 3.70D-09 XBig12= 4.22D-14 2.49D-08.
 InvSVY:  IOpt=1 It=  1 EMax= 1.33D-15
 Solved reduced A of dimension   156 with    21 vectors.
 End of Minotr F.D. properties file   721 does not exist.
 End of Minotr F.D. properties file   722 does not exist.
 End of Minotr F.D. properties file   788 does not exist.
 Leave Link 1002 at Wed Aug 28 23:45:10 2019, MaxMem=   671088640 cpu:            1334.3 elap:             166.8
 (Enter /shared/centos7/gaussian/g16/l601.exe)
 Copying SCF densities to generalized density rwf, IOpCl= 1 IROHF=0.

 **********************************************************************

            Population analysis using the SCF density.

 **********************************************************************

 Orbital symmetries:
 Alpha Orbitals:
       Occupied  (A) (A) (A) (A) (A) (A) (A) (A) (A) (A) (A) (A)
                 (A)
       Virtual   (A) (A) (A) (A) (A) (A) (A) (A) (A) (A) (A) (A)
                 (A) (A) (A) (A) (A) (A) (A) (A) (A) (A) (A) (A)
                 (A) (A) (A) (A) (A) (A) (A) (A) (A) (A) (A) (A)
                 (A) (A) (A) (A) (A) (A) (A) (A) (A) (A) (A) (A)
                 (A) (A) (A) (A) (A) (A) (A) (A) (A) (A) (A) (A)
                 (A) (A) (A) (A) (A) (A) (A) (A) (A) (A) (A) (A)
                 (A) (A) (A) (A) (A) (A) (A) (A) (A) (A) (A) (A)
                 (A) (A) (A) (A) (A) (A) (A) (A) (A) (A) (A) (A)
                 (A) (A) (A) (A) (A) (A) (A) (A) (A) (A) (A) (A)
                 (A) (A) (A) (A) (A) (A) (A) (A) (A) (A) (A) (A)
                 (A) (A) (A) (A) (A) (A) (A) (A) (A) (A) (A) (A)
                 (A) (A) (A) (A) (A) (A) (A) (A) (A) (A) (A) (A)
                 (A) (A) (A)
 Beta  Orbitals:
       Occupied  (A) (A) (A) (A) (A) (A) (A) (A) (A) (A) (A) (A)
       Virtual   (A) (A) (A) (A) (A) (A) (A) (A) (A) (A) (A) (A)
                 (A) (A) (A) (A) (A) (A) (A) (A) (A) (A) (A) (A)
                 (A) (A) (A) (A) (A) (A) (A) (A) (A) (A) (A) (A)
                 (A) (A) (A) (A) (A) (A) (A) (A) (A) (A) (A) (A)
                 (A) (A) (A) (A) (A) (A) (A) (A) (A) (A) (A) (A)
                 (A) (A) (A) (A) (A) (A) (A) (A) (A) (A) (A) (A)
                 (A) (A) (A) (A) (A) (A) (A) (A) (A) (A) (A) (A)
                 (A) (A) (A) (A) (A) (A) (A) (A) (A) (A) (A) (A)
                 (A) (A) (A) (A) (A) (A) (A) (A) (A) (A) (A) (A)
                 (A) (A) (A) (A) (A) (A) (A) (A) (A) (A) (A) (A)
                 (A) (A) (A) (A) (A) (A) (A) (A) (A) (A) (A) (A)
                 (A) (A) (A) (A) (A) (A) (A) (A) (A) (A) (A) (A)
                 (A) (A) (A) (A)
 The electronic state is 2-A.
 Alpha  occ. eigenvalues --  -19.61930 -10.58926 -10.53982  -1.14597  -0.84884
 Alpha  occ. eigenvalues --   -0.69198  -0.60295  -0.53736  -0.48930  -0.46997
 Alpha  occ. eigenvalues --   -0.41573  -0.36213  -0.26096
 Alpha virt. eigenvalues --    0.06518   0.10561   0.12630   0.13840   0.15595
 Alpha virt. eigenvalues --    0.20399   0.23602   0.30582   0.36826   0.37803
 Alpha virt. eigenvalues --    0.39619   0.40827   0.42061   0.45446   0.48295
 Alpha virt. eigenvalues --    0.50418   0.51697   0.52987   0.55669   0.59490
 Alpha virt. eigenvalues --    0.60458   0.62522   0.69970   0.71810   0.73677
 Alpha virt. eigenvalues --    0.79810   0.85878   0.91690   0.94364   1.01299
 Alpha virt. eigenvalues --    1.01787   1.03301   1.06972   1.09638   1.10970
 Alpha virt. eigenvalues --    1.12464   1.16931   1.20655   1.23445   1.27100
 Alpha virt. eigenvalues --    1.29562   1.35456   1.36982   1.37407   1.42681
 Alpha virt. eigenvalues --    1.45673   1.53204   1.59158   1.65664   1.85848
 Alpha virt. eigenvalues --    1.97613   2.03855   2.09004   2.12818   2.17728
 Alpha virt. eigenvalues --    2.18917   2.25022   2.30733   2.40292   2.42082
 Alpha virt. eigenvalues --    2.53474   2.56370   2.58768   2.69813   2.72291
 Alpha virt. eigenvalues --    2.77088   2.82041   2.82420   2.87459   2.89804
 Alpha virt. eigenvalues --    2.90224   2.95084   2.96806   2.99018   3.03548
 Alpha virt. eigenvalues --    3.05197   3.09664   3.10662   3.13464   3.15721
 Alpha virt. eigenvalues --    3.17555   3.31682   3.33513   3.39052   3.39545
 Alpha virt. eigenvalues --    3.40747   3.43139   3.46649   3.52008   3.53884
 Alpha virt. eigenvalues --    3.57506   3.64902   3.68674   3.69440   3.73625
 Alpha virt. eigenvalues --    3.78159   3.82535   3.84483   3.86136   3.89495
 Alpha virt. eigenvalues --    3.91808   3.94572   3.98603   4.00164   4.03039
 Alpha virt. eigenvalues --    4.07618   4.09377   4.16614   4.17623   4.28361
 Alpha virt. eigenvalues --    4.33730   4.39655   4.45457   4.56584   4.66079
 Alpha virt. eigenvalues --    4.68408   4.70060   4.74042   4.77561   4.81997
 Alpha virt. eigenvalues --    4.90483   4.95994   4.97661   5.04805   5.10996
 Alpha virt. eigenvalues --    5.21562   5.33068   5.34878   5.42422   5.49339
 Alpha virt. eigenvalues --    5.54245   5.70743   5.78125   5.86469   5.95343
 Alpha virt. eigenvalues --    6.15138   6.48494   6.64538   6.68729   6.72177
 Alpha virt. eigenvalues --    6.86561   6.93941   7.11132   7.38848  11.46879
 Alpha virt. eigenvalues --   11.98082  12.79077
  Beta  occ. eigenvalues --  -19.61922 -10.58996 -10.53248  -1.14531  -0.82696
  Beta  occ. eigenvalues --   -0.66633  -0.59879  -0.52530  -0.48263  -0.45995
  Beta  occ. eigenvalues --   -0.40967  -0.35483
  Beta virt. eigenvalues --   -0.01246   0.06203   0.10102   0.12477   0.13058
  Beta virt. eigenvalues --    0.15450   0.20144   0.23562   0.29441   0.35436
  Beta virt. eigenvalues --    0.37462   0.39868   0.41017   0.41952   0.44696
  Beta virt. eigenvalues --    0.47998   0.50358   0.52316   0.53826   0.56175
  Beta virt. eigenvalues --    0.59750   0.60856   0.63736   0.69614   0.71551
  Beta virt. eigenvalues --    0.73625   0.79597   0.85204   0.91296   0.94060
  Beta virt. eigenvalues --    1.00110   1.01423   1.03368   1.06798   1.09293
  Beta virt. eigenvalues --    1.11541   1.12516   1.17464   1.20827   1.23095
  Beta virt. eigenvalues --    1.27543   1.29809   1.35176   1.37236   1.37954
  Beta virt. eigenvalues --    1.42825   1.45741   1.54743   1.59056   1.67060
  Beta virt. eigenvalues --    1.86336   1.98120   2.03761   2.08993   2.13205
  Beta virt. eigenvalues --    2.19539   2.23091   2.26972   2.31224   2.40911
  Beta virt. eigenvalues --    2.43555   2.55921   2.58291   2.61440   2.72085
  Beta virt. eigenvalues --    2.76185   2.80312   2.84298   2.85545   2.90446
  Beta virt. eigenvalues --    2.91288   2.92917   2.97022   2.98074   3.00918
  Beta virt. eigenvalues --    3.06921   3.08324   3.11972   3.13345   3.14749
  Beta virt. eigenvalues --    3.16844   3.18282   3.32489   3.34585   3.40061
  Beta virt. eigenvalues --    3.40958   3.41599   3.43705   3.47537   3.52690
  Beta virt. eigenvalues --    3.54973   3.58571   3.65286   3.69186   3.70154
  Beta virt. eigenvalues --    3.74581   3.78993   3.83050   3.84825   3.86581
  Beta virt. eigenvalues --    3.90784   3.92622   3.95409   3.99696   4.00776
  Beta virt. eigenvalues --    4.04238   4.08681   4.09675   4.17691   4.18741
  Beta virt. eigenvalues --    4.29808   4.34950   4.40361   4.46576   4.58992
  Beta virt. eigenvalues --    4.68079   4.69650   4.71605   4.75801   4.80983
  Beta virt. eigenvalues --    4.84709   4.93884   4.97388   5.00470   5.07181
  Beta virt. eigenvalues --    5.14431   5.22199   5.34690   5.38713   5.46835
  Beta virt. eigenvalues --    5.53331   5.55908   5.75487   5.78857   5.88537
  Beta virt. eigenvalues --    5.95566   6.15599   6.48524   6.64553   6.68942
  Beta virt. eigenvalues --    6.72207   6.86589   6.93894   7.11168   7.38891
  Beta virt. eigenvalues --   11.47054  11.98694  12.80021
          Condensed to atoms (all electrons):
               1          2          3          4          5          6
     1  O    7.868889   0.339232  -0.053074  -0.048273  -0.056493   0.003149
     2  C    0.339232   4.636042   0.299584   0.396823   0.403083  -0.041311
     3  C   -0.053074   0.299584   5.480093  -0.052553  -0.059497   0.389020
     4  H   -0.048273   0.396823  -0.052553   0.717133  -0.091199  -0.001288
     5  H   -0.056493   0.403083  -0.059497  -0.091199   0.731161   0.001883
     6  H    0.003149  -0.041311   0.389020  -0.001288   0.001883   0.519058
     7  H    0.005686  -0.038641   0.383828   0.007556  -0.000642  -0.030601
     8  H    0.324592  -0.033315   0.009202  -0.006141  -0.006418  -0.000661
               7          8
     1  O    0.005686   0.324592
     2  C   -0.038641  -0.033315
     3  C    0.383828   0.009202
     4  H    0.007556  -0.006141
     5  H   -0.000642  -0.006418
     6  H   -0.030601  -0.000661
     7  H    0.493179  -0.000448
     8  H   -0.000448   0.468286
          Atomic-Atomic Spin Densities.
               1          2          3          4          5          6
     1  O    0.008762   0.000558  -0.000706   0.004102  -0.005875  -0.000119
     2  C    0.000558  -0.073587  -0.037416   0.012406   0.018756   0.003077
     3  C   -0.000706  -0.037416   1.162078  -0.021741  -0.037645  -0.001718
     4  H    0.004102   0.012406  -0.021741   0.058525  -0.021622   0.001171
     5  H   -0.005875   0.018756  -0.037645  -0.021622   0.100931  -0.000912
     6  H   -0.000119   0.003077  -0.001718   0.001171  -0.000912  -0.047847
     7  H    0.000847   0.004143  -0.004526   0.000194  -0.000939   0.004178
     8  H   -0.002122   0.000595   0.000668  -0.001262   0.002754   0.000017
               7          8
     1  O    0.000847  -0.002122
     2  C    0.004143   0.000595
     3  C   -0.004526   0.000668
     4  H    0.000194  -0.001262
     5  H   -0.000939   0.002754
     6  H    0.004178   0.000017
     7  H   -0.042628  -0.000072
     8  H   -0.000072   0.000180
 Mulliken charges and spin densities:
               1          2
     1  O   -0.383707   0.005447
     2  C    0.038504  -0.071467
     3  C   -0.396601   1.058995
     4  H    0.077942   0.031773
     5  H    0.078122   0.055447
     6  H    0.160752  -0.042152
     7  H    0.180085  -0.038801
     8  H    0.244903   0.000759
 Sum of Mulliken charges =  -0.00000   1.00000
 Mulliken charges and spin densities with hydrogens summed into heavy atoms:
               1          2
     1  O   -0.138804   0.006205
     2  C    0.194568   0.015754
     3  C   -0.055764   0.978041
 APT charges:
               1
     1  O   -0.657263
     2  C   -0.481422
     3  C   -0.808126
     4  H    0.290590
     5  H    0.283022
     6  H    0.446957
     7  H    0.354681
     8  H    0.571561
 Sum of APT charges =  -0.00000
 APT charges with hydrogens summed into heavy atoms:
               1
     1  O   -0.085702
     2  C    0.092190
     3  C   -0.006488
 Electronic spatial extent (au):  <R**2>=            178.8927
 Charge=             -0.0000 electrons
 Dipole moment (field-independent basis, Debye):
    X=             -0.2911    Y=              1.6752    Z=              0.3857  Tot=              1.7435
 Quadrupole moment (field-independent basis, Debye-Ang):
   XX=            -16.2081   YY=            -19.3946   ZZ=            -20.5048
   XY=             -1.7623   XZ=             -0.4787   YZ=             -0.4173
 Traceless Quadrupole moment (field-independent basis, Debye-Ang):
   XX=              2.4944   YY=             -0.6921   ZZ=             -1.8023
   XY=             -1.7623   XZ=             -0.4787   YZ=             -0.4173
 Octapole moment (field-independent basis, Debye-Ang**2):
  XXX=            -13.9974  YYY=             -1.4098  ZZZ=              0.3179  XYY=             -0.7223
  XXY=              2.8660  XXZ=              0.3562  XZZ=             -2.9842  YZZ=              0.8398
  YYZ=              0.3343  XYZ=             -0.4978
 Hexadecapole moment (field-independent basis, Debye-Ang**3):
 XXXX=           -122.1882 YYYY=            -54.1526 ZZZZ=            -28.8130 XXXY=              0.5736
 XXXZ=             -2.7419 YYYX=             -0.3295 YYYZ=             -1.2304 ZZZX=              0.1298
 ZZZY=             -0.1781 XXYY=            -34.2817 XXZZ=            -32.5549 YYZZ=            -13.6154
 XXYZ=             -0.7704 YYXZ=              0.5660 ZZXY=              0.6045
 N-N= 7.528082136494D+01 E-N=-5.115803419885D+02  KE= 1.535351796445D+02
  Exact polarizability:   0.000   0.000   0.000   0.000   0.000   0.000
 Approx polarizability:  34.063  -0.864  32.158  -0.716  -0.155  27.031
                          Isotropic Fermi Contact Couplings
        Atom                 a.u.       MegaHertz       Gauss      10(-4) cm-1
     1  O(17)              0.01013      -6.14379      -2.19226      -2.04935
     2  C(13)             -0.03593     -40.39258     -14.41308     -13.47351
     3  C(13)              0.18733     210.58997      75.14374      70.24525
     4  H(1)               0.01565      69.93151      24.95330      23.32664
     5  H(1)               0.02747     122.78154      43.81151      40.95551
     6  H(1)              -0.01607     -71.81544     -25.62553     -23.95505
     7  H(1)              -0.01585     -70.84757     -25.28018     -23.63221
     8  H(1)              -0.00026      -1.17433      -0.41903      -0.39171
 --------------------------------------------------------
       Center         ----  Spin Dipole Couplings  ----
                      3XX-RR        3YY-RR        3ZZ-RR
 --------------------------------------------------------
     1   Atom        0.023369     -0.006955     -0.016414
     2   Atom        0.003282     -0.011238      0.007956
     3   Atom       -0.531765     -0.481536      1.013301
     4   Atom        0.000694      0.005878     -0.006572
     5   Atom        0.002599      0.001351     -0.003950
     6   Atom        0.041310     -0.036681     -0.004628
     7   Atom       -0.072311      0.070853      0.001459
     8   Atom        0.007652     -0.003705     -0.003947
 --------------------------------------------------------
                        XY            XZ            YZ
 --------------------------------------------------------
     1   Atom        0.013303      0.002958      0.008719
     2   Atom       -0.006110     -0.008967     -0.000002
     3   Atom        0.040356      0.176307      0.323665
     4   Atom       -0.013315      0.006173     -0.007116
     5   Atom       -0.010688     -0.005038      0.010263
     6   Atom        0.063444     -0.011512      0.004037
     7   Atom        0.004773      0.006995     -0.021520
     8   Atom       -0.000386      0.000055      0.000628
 --------------------------------------------------------


 ---------------------------------------------------------------------------------
              Anisotropic Spin Dipole Couplings in Principal Axis System
 ---------------------------------------------------------------------------------

       Atom             a.u.   MegaHertz   Gauss  10(-4) cm-1        Axes

              Baa    -0.0221     1.599     0.570     0.533  0.1135 -0.5689  0.8145
     1 O(17)  Bbb    -0.0071     0.511     0.182     0.170 -0.3760  0.7343  0.5652
              Bcc     0.0291    -2.109    -0.753    -0.704  0.9196  0.3704  0.1306
 
              Baa    -0.0140    -1.877    -0.670    -0.626  0.4042  0.8996  0.1653
     2 C(13)  Bbb    -0.0014    -0.194    -0.069    -0.065  0.6596 -0.4119  0.6287
              Bcc     0.0154     2.071     0.739     0.691 -0.6337  0.1451  0.7599
 
              Baa    -0.5542   -74.375   -26.539   -24.809  0.8299 -0.5575  0.0218
     3 C(13)  Bbb    -0.5462   -73.289   -26.151   -24.447  0.5469  0.8052 -0.2290
              Bcc     1.1004   147.664    52.690    49.255  0.1101  0.2019  0.9732
 
              Baa    -0.0104    -5.539    -1.977    -1.848  0.7884  0.4742 -0.3919
     4 H(1)   Bbb    -0.0098    -5.222    -1.863    -1.742  0.1271  0.4978  0.8579
              Bcc     0.0202    10.761     3.840     3.589 -0.6019  0.7262 -0.3322
 
              Baa    -0.0126    -6.732    -2.402    -2.246  0.2671  0.6949 -0.6676
     5 H(1)   Bbb    -0.0054    -2.894    -1.033    -0.965  0.7516  0.2834  0.5956
              Bcc     0.0180     9.626     3.435     3.211 -0.6031  0.6609  0.4466
 
              Baa    -0.0734   -39.151   -13.970   -13.060 -0.4899  0.8616 -0.1326
     6 H(1)   Bbb    -0.0042    -2.243    -0.800    -0.748  0.0211  0.1638  0.9863
              Bcc     0.0776    41.395    14.771    13.808  0.8715  0.4804 -0.0984
 
              Baa    -0.0733   -39.109   -13.955   -13.045  0.9931 -0.0488 -0.1070
     7 H(1)   Bbb    -0.0037    -1.992    -0.711    -0.664  0.1162  0.2685  0.9563
              Bcc     0.0770    41.101    14.666    13.710  0.0180  0.9620 -0.2723
 
              Baa    -0.0045    -2.386    -0.852    -0.796 -0.0238 -0.6401  0.7679
     8 H(1)   Bbb    -0.0032    -1.703    -0.608    -0.568  0.0241  0.7675  0.6405
              Bcc     0.0077     4.090     1.459     1.364  0.9994 -0.0337  0.0029
 

 ---------------------------------------------------------------------------------

 No NMR shielding tensors so no spin-rotation constants.
 Leave Link  601 at Wed Aug 28 23:45:20 2019, MaxMem=   671088640 cpu:              76.5 elap:              10.0
 (Enter /shared/centos7/gaussian/g16/l701.exe)
 SCFChk:  SCF convergence  7.09D-09 required  1.00D-08
 ... and contract with generalized density number  0.
 Compute integral second derivatives.
 Entering OneElI...
 Calculate overlap and kinetic energy integrals
    NBasis = 180  MinDer = 2  MaxDer = 2
 Requested accuracy = 0.1000D-12
 PrmmSu-InSpLW:  IPartL=    0 NPrtUS=   20 NPrtUL=    1 DoSpLW=F IThBeg=    0 IThEnd=   19 NThAct=   20.
 PrsmSu:  NPrtUS=  20 ThrOK=T IAlg=1 NPAlg=1 LenDen=           0 ISkipM=0 DoSpLW=F IThBeg=    0 IThEnd=   19.
 Prism:   IPart=     0 DynPar=F LinDyn=F Incr=           1.
 PRISM was handed    33498241 working-precision words and  1830 shell-pairs
 PRISM was handed    33498241 working-precision words and  1830 shell-pairs
 PRISM was handed    33498241 working-precision words and  1830 shell-pairs
 PRISM was handed    33498241 working-precision words and  1830 shell-pairs
 PRISM was handed    33498241 working-precision words and  1830 shell-pairs
 PRISM was handed    33498241 working-precision words and  1830 shell-pairs
 PRISM was handed    33498241 working-precision words and  1830 shell-pairs
 PRISM was handed    33498241 working-precision words and  1830 shell-pairs
 PRISM was handed    33498241 working-precision words and  1830 shell-pairs
 PRISM was handed    33498241 working-precision words and  1830 shell-pairs
 PRISM was handed    33498241 working-precision words and  1830 shell-pairs
 PRISM was handed    33498241 working-precision words and  1830 shell-pairs
 PRISM was handed    33498241 working-precision words and  1830 shell-pairs
 PRISM was handed    33498241 working-precision words and  1830 shell-pairs
 PRISM was handed    33498241 working-precision words and  1830 shell-pairs
 PRISM was handed    33498241 working-precision words and  1830 shell-pairs
 PRISM was handed    33498241 working-precision words and  1830 shell-pairs
 IPart=  0 NShTot=         130 NBatch=          58 AvBLen=         2.2
 IPart= 10 NShTot=          85 NBatch=          21 AvBLen=         4.0
 IPart= 18 NShTot=          73 NBatch=          20 AvBLen=         3.7
 IPart=  3 NShTot=         108 NBatch=          36 AvBLen=         3.0
 PRISM was handed    33498241 working-precision words and  1830 shell-pairs
 IPart=  4 NShTot=         104 NBatch=          32 AvBLen=         3.3
 IPart= 15 NShTot=          78 NBatch=          20 AvBLen=         3.9
 PRISM was handed    33498241 working-precision words and  1830 shell-pairs
 PRISM was handed    33498241 working-precision words and  1830 shell-pairs
 IPart=  1 NShTot=         119 NBatch=          47 AvBLen=         2.5
 IPart= 13 NShTot=          80 NBatch=          21 AvBLen=         3.8
 IPart=  7 NShTot=          94 NBatch=          24 AvBLen=         3.9
 IPart=  9 NShTot=          86 NBatch=          21 AvBLen=         4.1
 IPart= 14 NShTot=          79 NBatch=          21 AvBLen=         3.8
 IPart= 17 NShTot=          73 NBatch=          20 AvBLen=         3.7
 IPart= 16 NShTot=          73 NBatch=          20 AvBLen=         3.7
 IPart=  5 NShTot=         102 NBatch=          30 AvBLen=         3.4
 IPart=  6 NShTot=          95 NBatch=          25 AvBLen=         3.8
 IPart= 11 NShTot=          85 NBatch=          21 AvBLen=         4.0
 IPart= 19 NShTot=          73 NBatch=          20 AvBLen=         3.7
 IPart= 12 NShTot=          85 NBatch=          21 AvBLen=         4.0
 IPart=  8 NShTot=          91 NBatch=          24 AvBLen=         3.8
 IPart=  2 NShTot=         117 NBatch=          45 AvBLen=         2.6
 PrSmSu:  NxtVal=             21.
 Entering OneElI...
 Calculate potential energy integrals
    NBasis = 180  MinDer = 2  MaxDer = 2
 Requested accuracy = 0.1000D-12
 PrmmSu-InSpLW:  IPartL=    0 NPrtUS=   20 NPrtUL=    1 DoSpLW=F IThBeg=    0 IThEnd=   19 NThAct=   20.
 PrsmSu:  NPrtUS=  20 ThrOK=T IAlg=1 NPAlg=1 LenDen=           0 ISkipM=0 DoSpLW=F IThBeg=    0 IThEnd=   19.
 Prism:   IPart=     0 DynPar=F LinDyn=F Incr=           7.
 PRISM was handed    33503561 working-precision words and  1810 shell-pairs
 PRISM was handed    33503561 working-precision words and  1810 shell-pairs
 PRISM was handed    33503561 working-precision words and  1810 shell-pairs
 PRISM was handed    33503561 working-precision words and  1810 shell-pairs
 PRISM was handed    33503561 working-precision words and  1810 shell-pairs
 PRISM was handed    33503561 working-precision words and  1810 shell-pairs
 PRISM was handed    33503561 working-precision words and  1810 shell-pairs
 PRISM was handed    33503561 working-precision words and  1810 shell-pairs
 PRISM was handed    33503561 working-precision words and  1810 shell-pairs
 PRISM was handed    33503561 working-precision words and  1810 shell-pairs
 PRISM was handed    33503561 working-precision words and  1810 shell-pairs
 PRISM was handed    33503561 working-precision words and  1810 shell-pairs
 PRISM was handed    33503561 working-precision words and  1810 shell-pairs
 PRISM was handed    33503561 working-precision words and  1810 shell-pairs
 PRISM was handed    33503561 working-precision words and  1810 shell-pairs
 PRISM was handed    33503561 working-precision words and  1810 shell-pairs
 PRISM was handed    33503561 working-precision words and  1810 shell-pairs
 PRISM was handed    33503561 working-precision words and  1810 shell-pairs
 PRISM was handed    33503561 working-precision words and  1810 shell-pairs
 PRISM was handed    33503561 working-precision words and  1810 shell-pairs
 IPart= 16 NShTot=         608 NBatch=          76 AvBLen=         8.0
 IPart= 18 NShTot=         600 NBatch=          75 AvBLen=         8.0
 IPart= 17 NShTot=         600 NBatch=          75 AvBLen=         8.0
 IPart=  4 NShTot=         824 NBatch=         103 AvBLen=         8.0
 IPart=  2 NShTot=         920 NBatch=         115 AvBLen=         8.0
 IPart=  8 NShTot=         712 NBatch=          89 AvBLen=         8.0
 IPart= 13 NShTot=         640 NBatch=          80 AvBLen=         8.0
 IPart= 12 NShTot=         648 NBatch=          81 AvBLen=         8.0
 IPart=  0 NShTot=        1048 NBatch=         131 AvBLen=         8.0
 IPart= 14 NShTot=         624 NBatch=          78 AvBLen=         8.0
 IPart=  5 NShTot=         800 NBatch=         100 AvBLen=         8.0
 IPart= 11 NShTot=         648 NBatch=          81 AvBLen=         8.0
 IPart= 10 NShTot=         648 NBatch=          81 AvBLen=         8.0
 IPart=  9 NShTot=         672 NBatch=          84 AvBLen=         8.0
 IPart=  7 NShTot=         728 NBatch=          91 AvBLen=         8.0
 IPart=  3 NShTot=         856 NBatch=         107 AvBLen=         8.0
 IPart= 19 NShTot=         600 NBatch=          75 AvBLen=         8.0
 IPart=  1 NShTot=         952 NBatch=         119 AvBLen=         8.0
 IPart=  6 NShTot=         736 NBatch=          92 AvBLen=         8.0
 IPart= 15 NShTot=         616 NBatch=          77 AvBLen=         8.0
 PrSmSu:  NxtVal=            141.
 Polarizability after L701:
                1             2             3 
      1  0.000000D+00
      2  0.000000D+00  0.000000D+00
      3  0.000000D+00  0.000000D+00  0.000000D+00
 Dipole Derivatives after L701:
                 1             2             3             4             5 
      1  -0.124679D+01  0.505566D+00  0.106486D+00 -0.537960D-01 -0.173722D+00
      2   0.168752D+00 -0.337913D+00  0.574337D-02 -0.134959D+00 -0.724083D+00
      3   0.586958D-01  0.515698D-03 -0.387086D+00  0.101068D-01 -0.205063D-01
                 6             7             8             9            10 
      1  -0.377202D-02 -0.126210D+01  0.158788D+00  0.193398D-01  0.130052D+00
      2  -0.249429D-01 -0.874285D-01 -0.906904D+00  0.222604D+00 -0.519141D-03
      3  -0.666386D+00  0.468778D-01  0.198977D+00 -0.255378D+00  0.403316D-01
                11            12            13            14            15 
      1   0.153204D-01  0.369697D-01  0.135838D+00  0.182069D-01 -0.378317D-01
      2   0.385970D+00 -0.252304D+00  0.493363D-02  0.299594D+00  0.233032D+00
      3  -0.172888D+00  0.355748D+00 -0.403748D-01  0.147906D+00  0.413635D+00
                16            17            18            19            20 
      1   0.100722D+01  0.402988D+00 -0.150101D+00  0.161014D+00 -0.499539D+00
      2   0.130834D+00  0.213361D+00 -0.350061D-01 -0.197590D-01  0.749664D+00
      3  -0.790983D-01 -0.489787D-01  0.120289D+00  0.292088D-02 -0.125761D+00
                21            22            23            24 
      1   0.133249D+00  0.112856D+01 -0.427608D+00 -0.104339D+00
      2  -0.161602D+00 -0.618535D-01  0.320312D+00  0.124760D-01
      3   0.153365D+00 -0.394598D-01  0.207350D-01  0.265813D+00
 Hessian after L701:
                1             2             3             4             5 
      1  0.251561D+01
      2 -0.186247D+01  0.785976D+01
      3  0.795953D-01 -0.416052D+00  0.112420D+02
      4 -0.153815D+01  0.384830D+01  0.298099D+00  0.886864D+01
      5  0.377364D+01 -0.333673D+01  0.310487D+00 -0.206566D+01  0.110424D+02
      6  0.269977D+00  0.303487D+00 -0.662577D+01 -0.947985D-01 -0.315434D+00
      7  0.576521D+00 -0.140668D+00  0.862854D-01 -0.130749D+01 -0.197659D+01
      8 -0.964431D-01 -0.382062D+00 -0.137386D-01 -0.192139D+01 -0.367365D+01
      9  0.766940D-01 -0.749496D-02 -0.291623D+00 -0.157038D+00  0.451674D-01
     10 -0.974985D-01 -0.155336D+00 -0.805850D-01 -0.300731D+01  0.625935D-01
     11 -0.160526D+00 -0.157988D-01 -0.235056D+00  0.798013D-01 -0.188240D+01
     12 -0.661622D-01 -0.198413D+00  0.305319D+00 -0.682288D-01 -0.103904D+01
     13 -0.725863D-01 -0.184432D+00  0.328605D-01 -0.298123D+01  0.268744D-01
     14 -0.194057D+00 -0.869554D-01  0.133424D+00  0.277679D-01 -0.224377D+01
     15  0.137102D-01  0.959616D-01  0.374670D+00  0.188857D-01  0.989729D+00
     16  0.112703D+00  0.523509D-01 -0.518805D-02 -0.627043D-01  0.175930D-01
     17  0.444092D-01 -0.233219D-01 -0.315681D-02  0.164953D-01  0.730701D-01
     18 -0.867328D-02 -0.506379D-02 -0.362601D-01  0.444101D-02 -0.374071D-02
     19  0.124997D+00 -0.354890D-01 -0.845077D-02  0.104529D-01  0.927301D-01
     20 -0.108596D+00 -0.439609D-01 -0.187740D-02  0.503402D-01 -0.255478D-01
     21  0.163157D-01 -0.253551D-02 -0.801450D-01 -0.106470D-01  0.922583D-03
     22 -0.162160D+01 -0.152226D+01 -0.402617D+00  0.177976D-01  0.688209D-01
     23 -0.139596D+01 -0.397093D+01  0.225969D+00 -0.356495D-01  0.465949D-01
     24 -0.381457D+00  0.230110D+00 -0.488823D+01  0.928649D-02  0.119128D-01
                6             7             8             9            10 
      6  0.147779D+02
      7 -0.151977D+00  0.447817D+01
      8  0.478829D-01  0.131215D+01  0.724657D+01
      9 -0.475766D+01  0.322697D+00  0.556992D+00  0.101265D+02
     10 -0.587881D-01  0.925030D-02  0.545521D-01 -0.137266D-01  0.286292D+01
     11 -0.109716D+01  0.512618D-01 -0.258102D-01 -0.578084D-02  0.830585D-01
     12 -0.193520D+01 -0.165266D-01  0.455338D-02  0.750464D-01  0.122082D+00
     13  0.207753D-01 -0.554891D-02  0.404148D-01  0.137090D-01  0.242216D+00
     14  0.104607D+01  0.503574D-01  0.470995D-01  0.291410D-01 -0.522397D-03
     15 -0.153829D+01  0.287408D-01  0.199848D-01  0.115782D+00  0.127129D-01
     16  0.606713D-02 -0.115804D+01  0.731013D+00 -0.249267D+00  0.867973D-02
     17 -0.502111D-02  0.694506D+00 -0.229819D+01 -0.118500D+00 -0.151964D-02
     18  0.344996D-01 -0.242143D+00 -0.123923D+00 -0.261340D+01  0.218886D-02
     19 -0.181657D-01 -0.275779D+01 -0.893295D-01  0.234251D-01 -0.751431D-02
     20  0.504531D-02  0.468213D-01 -0.871995D+00 -0.502706D+00 -0.287335D-01
     21  0.475974D-01 -0.108580D-01 -0.493390D+00 -0.261417D+01  0.116065D-01
     22  0.269097D-01  0.164933D+00 -0.309603D-01 -0.164936D-01 -0.107385D-01
     23  0.151320D-01 -0.378315D-01 -0.419622D-01  0.318170D-02 -0.140925D-01
     24 -0.311578D-02 -0.162188D-01  0.163815D-02 -0.404930D-01  0.450922D-02
               11            12            13            14            15 
     11  0.161114D+01
     12  0.125179D+01  0.200912D+01
     13 -0.164254D-02  0.621088D-02  0.281828D+01
     14  0.261787D+00  0.110343D-01  0.145188D+00  0.201394D+01
     15  0.115602D+00 -0.457153D+00 -0.545298D-01 -0.122578D+01  0.149867D+01
     16 -0.138983D-01  0.975464D-02  0.151951D-01 -0.153581D-01 -0.200824D-01
     17 -0.308764D-02  0.153224D-03 -0.427342D-02 -0.705688D-02  0.116186D-02
     18 -0.274773D-02 -0.214617D-02 -0.119234D-01  0.653738D-02  0.113619D-02
     19 -0.331657D-01  0.164552D-01 -0.153927D-02 -0.590364D-02 -0.314952D-02
     20  0.573019D-01 -0.365494D-01 -0.722395D-02  0.161361D-01  0.105771D-01
     21 -0.276410D-01 -0.482774D-02 -0.120452D-02  0.195596D-02 -0.406326D-02
     22 -0.488921D-02 -0.358553D-02 -0.147872D-01 -0.747162D-02  0.371216D-02
     23 -0.312396D-02  0.647434D-02 -0.149050D-01 -0.117559D-02 -0.723904D-02
     24  0.989616D-03  0.985036D-02 -0.589797D-02 -0.238108D-02  0.924463D-02
               16            17            18            19            20 
     16  0.106299D+01
     17 -0.627204D+00  0.238159D+01
     18  0.222336D+00  0.701489D-01  0.255592D+01
     19  0.181065D-01 -0.126065D+00  0.351964D-01  0.260878D+01
     20 -0.139638D+00 -0.122930D+00  0.582279D-01  0.200173D+00  0.985998D+00
     21  0.373370D-01  0.554713D-01  0.597068D-01 -0.451330D-01  0.466641D+00
     22  0.306855D-02  0.365143D-02 -0.142233D-02  0.450707D-02 -0.131426D-01
     23 -0.485853D-02 -0.776978D-04  0.560745D-03 -0.295095D-02  0.499790D-02
     24 -0.956978D-03 -0.257720D-03  0.543961D-03 -0.177802D-03  0.641928D-03
               21            22            23            24 
     21  0.259780D+01
     22  0.258327D-02  0.145682D+01
     23 -0.142464D-02  0.150625D+01  0.396568D+01
     24 -0.189225D-02  0.390913D+00 -0.242654D+00  0.491409D+01
 Leave Link  701 at Wed Aug 28 23:45:24 2019, MaxMem=   671088640 cpu:              30.8 elap:               3.9
 (Enter /shared/centos7/gaussian/g16/l702.exe)
 L702 exits ... SP integral derivatives will be done elsewhere.
 Leave Link  702 at Wed Aug 28 23:45:25 2019, MaxMem=   671088640 cpu:               1.5 elap:               0.4
 (Enter /shared/centos7/gaussian/g16/l703.exe)
 Integral derivatives from FoFJK, PRISM(SPDF).
 Compute integral second derivatives, UseDBF=F ICtDFT=           0.
 ICntrl=    100147.
 Calling FoFJK, ICntrl=    100147 FMM=F ISym2X=0 I1Cent= 0 IOpClX= 1 NMat=1 NMatS=1 NMatT=0.
 FoFJK:  IHMeth= 1 ICntrl=  100147 DoSepK=F KAlg= 0 I1Cent=           0 FoldK=F
 IRaf=         0 NMat=       1 IRICut=       1 DoRegI=T DoRafI=F ISym2E= 0 IDoP0=0 IntGTp=1.
 FoFCou: FMM=F IPFlag=           0 FMFlag=      100000 FMFlg1=         800
         NFxFlg=           0 DoJE=F BraDBF=F KetDBF=F FulRan=T
         wScrn=  0.000000 ICntrl=    100147 IOpCl=  1 I1Cent=           0 NGrid=           0
         NMat0=    1 NMatS0=      1 NMatT0=    0 NMatD0=    1 NMtDS0=    0 NMtDT0=    0
 Symmetry not used in FoFCou.
 FoFCou:  KetSym=F NOpSet=  1 NOpAb=1 NOp=  1.
 FoFCou:  CnvScl= 1.00D+00 Thresh= 1.00D-08 IAcrcy=      12.
 PrismS was handed   670881673 working-precision words and  1827 shell-pairs
 FoFCou: LinMIO=F DoNuc=F BraDBF=F KetDBF=F HaveP=T PDBF=F HaveZ=T HaveW=F
         NIJTC =      10 NIJTAt=       0 NIJTCD=       0 NIJTT =      10
         IJTBeg=       1 IJTEnd=      10 KLTBeg=       1 KLTEnd=      10
         IPTBeg=       1 IPTEnd=      10 IPTBCv=       1 IPTECv=      10
         IZTBeg=       1 IZTEnd=      10 IZTBCv=       1 IZTECv=      10
         IWTBeg=      11 IWTEnd=      10 IWTBCv=      11 IWTECv=      10
         INTBeg=       1 INTEnd=       0 IFTBCv=       1 IFTECv=      10
 NCel replicated for PrismC:     1
 CoulSu-InSpLW:  IPartL=    0 NPrtUS=   20 NPrtUL=    1 DoSpLW=F IThBeg=    0 IThEnd=   19 NThAct=   20.
 CoulSu:  IncDef=  1024 NBBP=        1669878 NTPThr=   100 NPartT=   20 Incr=         834 LDynOK=F GPUOK=T.
 CoulSu:  NPrtUS=  20 ThrOK=T IAlg=1 NPAlg=1 LenDen=           0 LWGrdD=           0 DoCopy=F ISkipM=0
          DoSpLW=F IThBeg=    0 IThEnd=   19.
 Enter PrismC:  IPart=  0 JobTyp=22 DoJE=F Cont=F.
 Enter PrismC:  IPart=  3 JobTyp=22 DoJE=F Cont=F.
 PrismC:  IPart=     3 DynPar=T LinDyn=F Incr=         834 UseFst=F UseS4=T ISplat=2.
 PrismC was handed    33503026 working-precision words and  1827 shell-pairs
 PrismC:  IPart=     0 DynPar=T LinDyn=F Incr=         834 UseFst=F UseS4=T ISplat=2.
 PrismC was handed    33503026 working-precision words and  1827 shell-pairs
 Enter PrismC:  IPart=  2 JobTyp=22 DoJE=F Cont=F.
 PrismC:  IPart=     2 DynPar=T LinDyn=F Incr=         834 UseFst=F UseS4=T ISplat=2.
 PrismC was handed    33503026 working-precision words and  1827 shell-pairs
 Enter PrismC:  IPart=  5 JobTyp=22 DoJE=F Cont=F.
 Enter PrismC:  IPart= 15 JobTyp=22 DoJE=F Cont=F.
 PrismC:  IPart=     5 DynPar=T LinDyn=F Incr=         834 UseFst=F UseS4=T ISplat=2.
 Enter PrismC:  IPart= 14 JobTyp=22 DoJE=F Cont=F.
 PrismC was handed    33503026 working-precision words and  1827 shell-pairs
 PrismC:  IPart=    15 DynPar=T LinDyn=F Incr=         834 UseFst=F UseS4=T ISplat=2.
 Enter PrismC:  IPart=  9 JobTyp=22 DoJE=F Cont=F.
 PrismC was handed    33503026 working-precision words and  1827 shell-pairs
 Enter PrismC:  IPart= 18 JobTyp=22 DoJE=F Cont=F.
 Enter PrismC:  IPart=  7 JobTyp=22 DoJE=F Cont=F.
 Enter PrismC:  IPart= 19 JobTyp=22 DoJE=F Cont=F.
 Enter PrismC:  IPart=  6 JobTyp=22 DoJE=F Cont=F.
 PrismC:  IPart=     9 DynPar=T LinDyn=F Incr=         834 UseFst=F UseS4=T ISplat=2.
 PrismC was handed    33503026 working-precision words and  1827 shell-pairs
 Enter PrismC:  IPart= 13 JobTyp=22 DoJE=F Cont=F.
 PrismC:  IPart=    14 DynPar=T LinDyn=F Incr=         834 UseFst=F UseS4=T ISplat=2.
 PrismC was handed    33503026 working-precision words and  1827 shell-pairs
 Enter PrismC:  IPart=  1 JobTyp=22 DoJE=F Cont=F.
 PrismC:  IPart=    13 DynPar=T LinDyn=F Incr=         834 UseFst=F UseS4=T ISplat=2.
 PrismC was handed    33503026 working-precision words and  1827 shell-pairs
 PrismC:  IPart=    18 DynPar=T LinDyn=F Incr=         834 UseFst=F UseS4=T ISplat=2.
 PrismC was handed    33503026 working-precision words and  1827 shell-pairs
 PrismC:  IPart=     7 DynPar=T LinDyn=F Incr=         834 UseFst=F UseS4=T ISplat=2.
 PrismC was handed    33503026 working-precision words and  1827 shell-pairs
 PrismC:  IPart=    19 DynPar=T LinDyn=F Incr=         834 UseFst=F UseS4=T ISplat=2.
 PrismC was handed    33503026 working-precision words and  1827 shell-pairs
 PrismC:  IPart=     6 DynPar=T LinDyn=F Incr=         834 UseFst=F UseS4=T ISplat=2.
 PrismC was handed    33503026 working-precision words and  1827 shell-pairs
 PrismC:  IPart=     1 DynPar=T LinDyn=F Incr=         834 UseFst=F UseS4=T ISplat=2.
 PrismC was handed    33503026 working-precision words and  1827 shell-pairs
 Enter PrismC:  IPart= 16 JobTyp=22 DoJE=F Cont=F.
 PrismC:  IPart=    16 DynPar=T LinDyn=F Incr=         834 UseFst=F UseS4=T ISplat=2.
 PrismC was handed    33503026 working-precision words and  1827 shell-pairs
 Enter PrismC:  IPart= 17 JobTyp=22 DoJE=F Cont=F.
 Enter PrismC:  IPart=  4 JobTyp=22 DoJE=F Cont=F.
 PrismC:  IPart=    17 DynPar=T LinDyn=F Incr=         834 UseFst=F UseS4=T ISplat=2.
 PrismC:  IPart=     4 DynPar=T LinDyn=F Incr=         834 UseFst=F UseS4=T ISplat=2.
 PrismC was handed    33503026 working-precision words and  1827 shell-pairs
 PrismC was handed    33503026 working-precision words and  1827 shell-pairs
 Enter PrismC:  IPart= 12 JobTyp=22 DoJE=F Cont=F.
 PrismC:  IPart=    12 DynPar=T LinDyn=F Incr=         834 UseFst=F UseS4=T ISplat=2.
 PrismC was handed    33503026 working-precision words and  1827 shell-pairs
 Enter PrismC:  IPart= 11 JobTyp=22 DoJE=F Cont=F.
 PrismC:  IPart=    11 DynPar=T LinDyn=F Incr=         834 UseFst=F UseS4=T ISplat=2.
 PrismC was handed    33503026 working-precision words and  1827 shell-pairs
 Enter PrismC:  IPart= 10 JobTyp=22 DoJE=F Cont=F.
 PrismC:  IPart=    10 DynPar=T LinDyn=F Incr=         834 UseFst=F UseS4=T ISplat=2.
 PrismC was handed    33503026 working-precision words and  1827 shell-pairs
 Enter PrismC:  IPart=  8 JobTyp=22 DoJE=F Cont=F.
 PrismC:  IPart=     8 DynPar=T LinDyn=F Incr=         834 UseFst=F UseS4=T ISplat=2.
 PrismC was handed    33503026 working-precision words and  1827 shell-pairs
 IPart=  3 NShTot=       82690 NShNF=       82690 NShFF=           0 MinMC=       7
           NShCPU=       82690 NBCPU=        3787 AvBCPU=        21.8
           NShGPU=           0 NBGPU=           0 AvBGPU=         0.0
 IPart= 12 NShTot=      108770 NShNF=      108770 NShFF=           0 MinMC=       7
           NShCPU=      108770 NBCPU=        2921 AvBCPU=        37.2
           NShGPU=           0 NBGPU=           0 AvBGPU=         0.0
 IPart= 13 NShTot=       88846 NShNF=       88846 NShFF=           0 MinMC=       7
           NShCPU=       88846 NBCPU=        3944 AvBCPU=        22.5
           NShGPU=           0 NBGPU=           0 AvBGPU=         0.0
 IPart=  8 NShTot=      206594 NShNF=      206594 NShFF=           0 MinMC=       7
           NShCPU=      206594 NBCPU=        8669 AvBCPU=        23.8
           NShGPU=           0 NBGPU=           0 AvBGPU=         0.0
 IPart= 18 NShTot=       51242 NShNF=       51242 NShFF=           0 MinMC=       7
           NShCPU=       51242 NBCPU=        2126 AvBCPU=        24.1
           NShGPU=           0 NBGPU=           0 AvBGPU=         0.0
 IPart=  4 NShTot=       90933 NShNF=       90933 NShFF=           0 MinMC=       7
           NShCPU=       90933 NBCPU=        3752 AvBCPU=        24.2
           NShGPU=           0 NBGPU=           0 AvBGPU=         0.0
 IPart=  2 NShTot=       92414 NShNF=       92414 NShFF=           0 MinMC=       7
           NShCPU=       92414 NBCPU=        3954 AvBCPU=        23.4
           NShGPU=           0 NBGPU=           0 AvBGPU=         0.0
 IPart= 14 NShTot=      216346 NShNF=      216346 NShFF=           0 MinMC=       7
           NShCPU=      216346 NBCPU=        9431 AvBCPU=        22.9
           NShGPU=           0 NBGPU=           0 AvBGPU=         0.0
 IPart= 17 NShTot=      212802 NShNF=      212802 NShFF=           0 MinMC=       7
           NShCPU=      212802 NBCPU=        9041 AvBCPU=        23.5
           NShGPU=           0 NBGPU=           0 AvBGPU=         0.0
 IPart= 11 NShTot=       57508 NShNF=       57508 NShFF=           0 MinMC=       7
           NShCPU=       57508 NBCPU=        2671 AvBCPU=        21.5
           NShGPU=           0 NBGPU=           0 AvBGPU=         0.0
 IPart= 19 NShTot=        8593 NShNF=        8593 NShFF=           0 MinMC=       7
           NShCPU=        8593 NBCPU=         359 AvBCPU=        23.9
           NShGPU=           0 NBGPU=           0 AvBGPU=         0.0
 IPart= 10 NShTot=        3771 NShNF=        3771 NShFF=           0 MinMC=       7
           NShCPU=        3771 NBCPU=          83 AvBCPU=        45.4
           NShGPU=           0 NBGPU=           0 AvBGPU=         0.0
 IPart=  5 NShTot=       58864 NShNF=       58864 NShFF=           0 MinMC=       7
           NShCPU=       58864 NBCPU=        2558 AvBCPU=        23.0
           NShGPU=           0 NBGPU=           0 AvBGPU=         0.0
 IPart=  7 NShTot=        7255 NShNF=        7255 NShFF=           0 MinMC=       7
           NShCPU=        7255 NBCPU=         219 AvBCPU=        33.1
           NShGPU=           0 NBGPU=           0 AvBGPU=         0.0
 IPart=  6 NShTot=      104164 NShNF=      104164 NShFF=           0 MinMC=       7
           NShCPU=      104164 NBCPU=        6180 AvBCPU=        16.9
           NShGPU=           0 NBGPU=           0 AvBGPU=         0.0
 IPart=  1 NShTot=        4902 NShNF=        4902 NShFF=           0 MinMC=       7
           NShCPU=        4902 NBCPU=         186 AvBCPU=        26.4
           NShGPU=           0 NBGPU=           0 AvBGPU=         0.0
 IPart= 16 NShTot=        1858 NShNF=        1858 NShFF=           0 MinMC=       7
           NShCPU=        1858 NBCPU=          46 AvBCPU=        40.4
           NShGPU=           0 NBGPU=           0 AvBGPU=         0.0
 IPart=  9 NShTot=        1258 NShNF=        1258 NShFF=           0 MinMC=       7
           NShCPU=        1258 NBCPU=          26 AvBCPU=        48.4
           NShGPU=           0 NBGPU=           0 AvBGPU=         0.0
 IPart= 15 NShTot=        1506 NShNF=        1506 NShFF=           0 MinMC=       7
           NShCPU=        1506 NBCPU=          37 AvBCPU=        40.7
           NShGPU=           0 NBGPU=           0 AvBGPU=         0.0
 IPart=  0 NShTot=         628 NShNF=         628 NShFF=           0 MinMC=       7
           NShCPU=         628 NBCPU=          13 AvBCPU=        48.3
           NShGPU=           0 NBGPU=           0 AvBGPU=         0.0
 CoulSu:  NxtVal=        1794769 LenVP=       33503027 MinMC=       7.
 ReadGW:  IGet=0 IStart=           1 Next=           1 LGW=           0.
 Remaining memory in FofDFT      639.94 Mw
 CkSvGd:  ISavGI=        -1 IRadAn=       5 IRASav=       5 ISavGd=        -1.
 CalDSu-InSpLW:  IPartL=    0 NPrtUS=   20 NPrtUL=    1 DoSpLW=F IThBeg=    0 IThEnd=   19 NThAct=   20.
 CalDSu:  NPrtUS=  20 ThrOK=T IAlg=1 NPAlg=2 DoDPD=T LenP=       16290 LenD1P=             0 GPUOK=F
          ISkipM=0 DoSpLW=F IThBeg=    0 IThEnd=   19.
 IPart=  0 IRanGd=          0 ScrnBf=T ScrnGd=T RCrit=4.00D+00 DoMicB=T.
 IPart=  9         7630 of         8666 points in       9 batches and       18 microbatches, Max-NSigAt=       8 Max-NSgAt2=       8
 IPart=  0         5580 of         5976 points in       5 batches and       40 microbatches, Max-NSigAt=       8 Max-NSgAt2=       8
 IPart=  1         6347 of         6504 points in       6 batches and       28 microbatches, Max-NSigAt=       8 Max-NSgAt2=       8
 IPart= 15        14886 of        16414 points in      15 batches and      128 microbatches, Max-NSigAt=       8 Max-NSgAt2=       8
 IPart= 19        13907 of        14616 points in      12 batches and       66 microbatches, Max-NSigAt=       8 Max-NSgAt2=       8
 IPart=  3         6245 of         6490 points in       6 batches and       25 microbatches, Max-NSigAt=       8 Max-NSgAt2=       8
 IPart= 12         5225 of         5514 points in       5 batches and       32 microbatches, Max-NSigAt=       8 Max-NSgAt2=       8
 IPart=  7         9043 of         9974 points in       9 batches and       49 microbatches, Max-NSigAt=       8 Max-NSgAt2=       8
 IPart= 16         7131 of         7480 points in       7 batches and       40 microbatches, Max-NSigAt=       8 Max-NSgAt2=       8
 IPart=  2         8320 of         8618 points in       7 batches and       38 microbatches, Max-NSigAt=       8 Max-NSgAt2=       8
 IPart=  5         5363 of         5956 points in       7 batches and       62 microbatches, Max-NSigAt=       8 Max-NSgAt2=       8
 IPart= 11         5876 of         6546 points in       8 batches and       66 microbatches, Max-NSigAt=       8 Max-NSgAt2=       8
 IPart= 14        11788 of        12734 points in      10 batches and       54 microbatches, Max-NSigAt=       8 Max-NSgAt2=       8
 IPart= 17        17503 of        19076 points in      17 batches and      115 microbatches, Max-NSigAt=       8 Max-NSgAt2=       8
 IPart=  8         5067 of         5352 points in       6 batches and       31 microbatches, Max-NSigAt=       8 Max-NSgAt2=       8
 IPart= 18         7931 of         8794 points in       8 batches and       61 microbatches, Max-NSigAt=       8 Max-NSgAt2=       8
 IPart= 13         5140 of         5380 points in       4 batches and       21 microbatches, Max-NSigAt=       8 Max-NSgAt2=       8
 IPart=  6         3939 of         4144 points in       4 batches and       25 microbatches, Max-NSigAt=       8 Max-NSgAt2=       8
 IPart= 10         7900 of         8968 points in       9 batches and       52 microbatches, Max-NSigAt=       8 Max-NSgAt2=       8
 IPart=  4        10153 of        10712 points in       8 batches and       40 microbatches, Max-NSigAt=       8 Max-NSgAt2=       8
 Polarizability after L703:
                1             2             3 
      1  0.000000D+00
      2  0.000000D+00  0.000000D+00
      3  0.000000D+00  0.000000D+00  0.000000D+00
 Dipole Derivatives after L703:
                 1             2             3             4             5 
      1  -0.124679D+01  0.505566D+00  0.106486D+00 -0.537960D-01 -0.173722D+00
      2   0.168752D+00 -0.337913D+00  0.574337D-02 -0.134959D+00 -0.724083D+00
      3   0.586958D-01  0.515698D-03 -0.387086D+00  0.101068D-01 -0.205063D-01
                 6             7             8             9            10 
      1  -0.377202D-02 -0.126210D+01  0.158788D+00  0.193398D-01  0.130052D+00
      2  -0.249429D-01 -0.874285D-01 -0.906904D+00  0.222604D+00 -0.519141D-03
      3  -0.666386D+00  0.468778D-01  0.198977D+00 -0.255378D+00  0.403316D-01
                11            12            13            14            15 
      1   0.153204D-01  0.369697D-01  0.135838D+00  0.182069D-01 -0.378317D-01
      2   0.385970D+00 -0.252304D+00  0.493363D-02  0.299594D+00  0.233032D+00
      3  -0.172888D+00  0.355748D+00 -0.403748D-01  0.147906D+00  0.413635D+00
                16            17            18            19            20 
      1   0.100722D+01  0.402988D+00 -0.150101D+00  0.161014D+00 -0.499539D+00
      2   0.130834D+00  0.213361D+00 -0.350061D-01 -0.197590D-01  0.749664D+00
      3  -0.790983D-01 -0.489787D-01  0.120289D+00  0.292088D-02 -0.125761D+00
                21            22            23            24 
      1   0.133249D+00  0.112856D+01 -0.427608D+00 -0.104339D+00
      2  -0.161602D+00 -0.618535D-01  0.320312D+00  0.124760D-01
      3   0.153365D+00 -0.394598D-01  0.207350D-01  0.265813D+00
 Hessian after L703:
                1             2             3             4             5 
      1  0.633339D+00
      2 -0.953800D-01  0.371228D+00
      3 -0.471368D-01  0.560856D-01  0.553298D-01
      4 -0.178766D+00 -0.576203D-01 -0.247045D-02  0.506521D+00
      5 -0.100888D+00 -0.163538D+00 -0.842715D-02 -0.183815D-01  0.533488D+00
      6 -0.132033D-01 -0.102049D-01 -0.609722D-01 -0.382217D-02 -0.231400D-01
      7 -0.454887D-01  0.129099D-01  0.256149D-02 -0.194965D+00  0.669095D-01
      8 -0.281746D-01  0.147358D-01  0.132413D-02  0.881230D-01 -0.135980D+00
      9  0.164785D-02 -0.381995D-03  0.287389D-02  0.104176D-01  0.758454D-02
     10 -0.947805D-02 -0.289077D-01  0.204209D-01 -0.516400D-01  0.114864D-01
     11 -0.126534D-01 -0.206665D-01  0.140962D-01  0.638263D-02 -0.143795D+00
     12  0.471865D-02 -0.231025D-02  0.939567D-02 -0.106084D-01  0.119010D+00
     13 -0.993144D-02 -0.267539D-01 -0.257023D-01 -0.465077D-01  0.134651D-01
     14 -0.124349D-01 -0.190088D-01 -0.203944D-01  0.394847D-02 -0.101075D+00
     15 -0.584304D-02 -0.334878D-02  0.464202D-02  0.993223D-02 -0.951023D-01
     16 -0.508502D-02  0.340003D-02  0.679833D-03 -0.992195D-02 -0.162450D-01
     17  0.365830D-02 -0.165250D-02 -0.400440D-03  0.124845D-01  0.111664D-01
     18 -0.861334D-03 -0.101552D-02  0.543721D-03  0.737792D-03  0.224694D-02
     19  0.329302D-02 -0.125096D-02 -0.371199D-04  0.273743D-02  0.239723D-01
     20 -0.686775D-03  0.175846D-02 -0.506997D-03 -0.369822D-02 -0.107108D-01
     21 -0.204160D-03  0.622875D-03 -0.484339D-03  0.969087D-04 -0.376622D-02
     22 -0.387882D+00  0.193603D+00  0.516844D-01 -0.274574D-01  0.196814D-01
     23  0.246560D+00 -0.182856D+00 -0.417770D-01 -0.312386D-01  0.104453D-01
     24  0.608822D-01 -0.394470D-01 -0.113286D-01 -0.428344D-02  0.159416D-02
                6             7             8             9            10 
      6  0.514924D+00
      7  0.101435D-01  0.588903D+00
      8  0.636130D-02  0.308064D-01  0.605238D+00
      9 -0.448329D-01 -0.662010D-01 -0.120861D+00  0.815535D-01
     10 -0.159027D-01 -0.392947D-03  0.215228D-01 -0.169467D-01  0.594396D-01
     11  0.117989D+00  0.655959D-02 -0.151256D-01  0.115736D-01 -0.329245D-02
     12 -0.191064D+00 -0.611454D-03 -0.212799D-02  0.361248D-02  0.884740D-02
     13  0.235882D-01 -0.616652D-02  0.171325D-01  0.191322D-01  0.379920D-02
     14 -0.978035D-01  0.101383D-01 -0.109888D-01 -0.136589D-01 -0.102249D-02
     15 -0.221218D+00  0.593363D-02 -0.263638D-02  0.212341D-02  0.310477D-02
     16  0.225234D-02 -0.283764D+00 -0.119473D+00  0.444116D-01  0.582713D-03
[...]
     18  0.282222D-03 -0.150069D-03 -0.546601D-03 -0.443306D-02  0.449153D-02
     19 -0.492335D-02  0.182796D-02  0.166003D-01 -0.487766D-03 -0.629290D-02
     20  0.544883D-02 -0.204581D-02 -0.160192D-01  0.554490D-02  0.900022D-03
     21  0.410090D-03  0.566472D-03  0.921899D-03  0.184752D-02 -0.302421D-02
     22  0.994749D-04  0.412134D-03  0.126090D-02  0.160757D-02 -0.270984D-02
     23 -0.163780D-01  0.129689D-03 -0.174549D-02  0.107815D-02  0.445773D-02
     24 -0.166886D-01 -0.246493D-04 -0.140649D-02  0.838198D-03  0.477210D-02
     25  0.182686D-01  0.958630D-04  0.359591D-03 -0.465660D-02 -0.120346D-02
     26  0.179580D-01 -0.584754D-04  0.698590D-03 -0.489655D-02 -0.889083D-03
                6             7             8             9            10 
      6  0.371391D+00
      7  0.301671D-03  0.371028D+00
      8  0.809899D-03  0.215593D-03  0.175959D+00
      9  0.554773D-02 -0.505979D-02  0.206931D-01  0.166855D+00
     10 -0.165096D-02  0.679013D-03 -0.648033D-02 -0.571444D-01  0.706550D-01
     11 -0.169722D-02  0.108367D-02 -0.755924D-02 -0.580168D-01  0.433489D-02
     12 -0.158343D-02  0.370234D-02 -0.542675D-02 -0.436549D-01 -0.248221D-01
     13 -0.100728D-02  0.105865D-02 -0.470948D-02 -0.372906D-01  0.172825D-01
     14  0.181970D-03 -0.126811D-02  0.270947D-02  0.230537D-01 -0.846602D-02
     15  0.580570D-02 -0.976481D-02  0.441299D-02  0.183505D-01 -0.301568D-02
     16 -0.104854D-01  0.605974D-02 -0.252615D-02 -0.179581D-01  0.200591D-02
     17  0.484403D-02  0.390791D-02 -0.185818D-02 -0.404478D-03  0.990031D-03
     18  0.318532D-03 -0.102317D-02  0.193756D-05  0.230459D-02  0.320023D-02
     19  0.960046D-03  0.680207D-03  0.278787D-02  0.218016D-01 -0.206750D-01
     20 -0.914379D-03  0.215790D-03 -0.266375D-02 -0.218467D-01  0.155141D-01
     21 -0.935391D-03 -0.338111D-03  0.280442D-03 -0.492007D-03  0.187694D-01
     22  0.609897D-03  0.140734D-02  0.274555D-03 -0.657615D-03  0.187448D-01
     23 -0.145938D-02 -0.256633D-03 -0.157695D-02 -0.948910D-02 -0.162979D-01
     24  0.859043D-04  0.148881D-02 -0.158283D-02 -0.965471D-02 -0.163225D-01
     25 -0.133741D-03 -0.155458D-02  0.116928D-02  0.107128D-01 -0.141338D-02
     26  0.141155D-02  0.190867D-03  0.116339D-02  0.105472D-01 -0.143798D-02
               11            12            13            14            15 
     11  0.706329D-01
     12  0.191024D-01  0.731020D-01
     13 -0.251450D-01 -0.246577D-02  0.680196D-01
     14 -0.924462D-02 -0.195339D-01 -0.183370D-01  0.316720D-01
     15 -0.458843D-02 -0.945071D-02 -0.473442D-02  0.271856D-02  0.717932D-01
     16  0.397924D-02  0.114245D-01  0.455620D-02 -0.329705D-02 -0.375989D-01
     17  0.671290D-03 -0.193644D-02  0.892997D-04  0.599315D-03 -0.337136D-01
     18 -0.410943D-02 -0.219481D-01  0.204159D-01  0.246944D-03  0.155747D-02
     19 -0.158330D-01  0.245817D-01  0.369536D-02 -0.142314D-01 -0.189842D-04
     20  0.200670D-01 -0.299137D-02 -0.241870D-01  0.139186D-01 -0.142600D-02
     21 -0.189491D-01 -0.260594D-02  0.310124D-02  0.165678D-03  0.214650D-03
     22 -0.184626D-01 -0.252742D-02  0.253674D-02  0.355111D-03 -0.131687D-03
     23  0.911637D-03  0.101626D-01  0.721257D-02  0.810645D-02 -0.189454D-02
     24  0.139813D-02  0.102411D-01  0.664807D-02  0.829588D-02 -0.224088D-02
     25  0.157587D-01 -0.825528D-02 -0.947229D-02 -0.794334D-02  0.326295D-02
     26  0.162452D-01 -0.817676D-02 -0.100368D-01 -0.775391D-02  0.291662D-02
               16            17            18            19            20 
     16  0.705153D-01
     17 -0.322769D-01  0.649634D-01
     18 -0.239700D-02  0.831941D-03  0.169091D-01
     19  0.125677D-02 -0.121930D-02 -0.687335D-02  0.250245D-01
     20  0.933460D-03  0.563834D-03 -0.717545D-02 -0.154872D-01  0.241044D-01
     21 -0.126373D-03 -0.383580D-03 -0.601999D-02  0.228676D-02  0.218323D-02
     22  0.989167D-03 -0.643085D-03 -0.599171D-02  0.228805D-02  0.271167D-02
     23  0.173944D-02 -0.131523D-03  0.232969D-02 -0.158531D-02 -0.109617D-02
     24  0.285498D-02 -0.391028D-03  0.235797D-02 -0.158402D-02 -0.567726D-03
     25 -0.378647D-02  0.242106D-03  0.298940D-02 -0.112030D-02 -0.188124D-02
     26 -0.267093D-02 -0.173989D-04  0.301767D-02 -0.111901D-02 -0.135279D-02
               21            22            23            24            25 
     21  0.158808D-01
     22  0.138989D-01  0.152467D-01
     23 -0.536030D-02 -0.725483D-02  0.144836D-01
     24 -0.734214D-02 -0.590705D-02  0.125891D-01  0.140242D-01
     25 -0.585214D-02 -0.768842D-02 -0.579308D-02 -0.762936D-02  0.144904D-01
     26 -0.783399D-02 -0.634064D-02 -0.768761D-02 -0.619427D-02  0.126541D-01
               26 
     26  0.141475D-01
 Leave Link  716 at Wed Aug 28 23:54:47 2019, MaxMem=   671088640 cpu:              12.0 elap:               1.7
 (Enter /shared/centos7/gaussian/g16/l103.exe)

 GradGradGradGradGradGradGradGradGradGradGradGradGradGradGradGradGradGrad
 Berny optimization.
 Red2BG is reusing G-inverse.
 Internal  Forces:  Max     0.000000519 RMS     0.000000176
 Search for a local minimum.
 Step number   1 out of a maximum of    2
 All quantities printed in internal units (Hartrees-Bohrs-Radians)
 Second derivative matrix not updated -- analytic derivatives used.
 ITU=  0
     Eigenvalues ---    0.00050   0.00230   0.00516   0.05991   0.06994
     Eigenvalues ---    0.09411   0.09748   0.11117   0.13408   0.16197
     Eigenvalues ---    0.23595   0.30560   0.31769   0.33626   0.37178
     Eigenvalues ---    0.37243   0.40973   0.54811
 Angle between quadratic step and forces=  41.15 degrees.
 Linear search not attempted -- first point.
 Iteration  1 RMS(Cart)=  0.00020303 RMS(Int)=  0.00000003
 Iteration  2 RMS(Cart)=  0.00000003 RMS(Int)=  0.00000000
 ITry= 1 IFail=0 DXMaxC= 6.37D-04 DCOld= 1.00D+10 DXMaxT= 3.00D-01 DXLimC= 3.00D+00 Rises=F
 Variable       Old X    -DE/DX   Delta X   Delta X   Delta X     New X
                                 (Linear)    (Quad)   (Total)
    R1        2.67593  -0.00000   0.00000  -0.00001  -0.00001   2.67593
    R2        1.81214   0.00000   0.00000  -0.00000  -0.00000   1.81214
    R3        2.79260  -0.00000   0.00000  -0.00000  -0.00000   2.79260
    R4        2.07523  -0.00000   0.00000   0.00001   0.00001   2.07524
    R5        2.08280  -0.00000   0.00000  -0.00000  -0.00000   2.08280
    R6        2.03747  -0.00000   0.00000  -0.00000  -0.00000   2.03747
    R7        2.03791   0.00000   0.00000  -0.00000  -0.00000   2.03790
    A1        1.89916  -0.00000   0.00000   0.00000   0.00000   1.89917
    A2        1.89842   0.00000   0.00000   0.00000   0.00000   1.89842
    A3        1.94013   0.00000   0.00000  -0.00001  -0.00001   1.94013
    A4        1.92505  -0.00000   0.00000   0.00001   0.00001   1.92507
    A5        1.92001  -0.00000   0.00000  -0.00000  -0.00000   1.92001
    A6        1.92315  -0.00000   0.00000   0.00000   0.00000   1.92315
    A7        1.85709   0.00000   0.00000  -0.00001  -0.00001   1.85708
    A8        2.10038  -0.00000   0.00000   0.00000   0.00000   2.10038
    A9        2.07855   0.00000   0.00000   0.00001   0.00001   2.07856
   A10        2.09122  -0.00000   0.00000   0.00002   0.00002   2.09124
    D1        3.04649  -0.00000   0.00000   0.00011   0.00011   3.04659
    D2       -1.12014  -0.00000   0.00000   0.00010   0.00010  -1.12004
    D3        0.93547  -0.00000   0.00000   0.00009   0.00009   0.93556
    D4        2.91683   0.00000   0.00000   0.00037   0.00037   2.91720
    D5       -0.39786   0.00000   0.00000   0.00059   0.00059  -0.39726
    D6        0.78799  -0.00000   0.00000   0.00038   0.00038   0.78837
    D7       -2.52669   0.00000   0.00000   0.00060   0.00060  -2.52609
    D8       -1.25417  -0.00000   0.00000   0.00039   0.00039  -1.25378
    D9        1.71433   0.00000   0.00000   0.00061   0.00061   1.71494
         Item               Value     Threshold  Converged?
 Maximum Force            0.000001     0.000450     YES
 RMS     Force            0.000000     0.000300     YES
 Maximum Displacement     0.000637     0.001800     YES
 RMS     Displacement     0.000203     0.001200     YES
 Predicted change in Energy=-4.209586D-10
 Optimization completed.
    -- Stationary point found.
                           ----------------------------
                           !   Optimized Parameters   !
                           ! (Angstroms and Degrees)  !
 --------------------------                            --------------------------
 ! Name  Definition              Value          Derivative Info.                !
 --------------------------------------------------------------------------------
 ! R1    R(1,2)                  1.416          -DE/DX =    0.0                 !
 ! R2    R(1,8)                  0.9589         -DE/DX =    0.0                 !
 ! R3    R(2,3)                  1.4778         -DE/DX =    0.0                 !
 ! R4    R(2,4)                  1.0982         -DE/DX =    0.0                 !
 ! R5    R(2,5)                  1.1022         -DE/DX =    0.0                 !
 ! R6    R(3,6)                  1.0782         -DE/DX =    0.0                 !
 ! R7    R(3,7)                  1.0784         -DE/DX =    0.0                 !
 ! A1    A(2,1,8)              108.8141         -DE/DX =    0.0                 !
 ! A2    A(1,2,3)              108.7712         -DE/DX =    0.0                 !
 ! A3    A(1,2,4)              111.1614         -DE/DX =    0.0                 !
 ! A4    A(1,2,5)              110.2974         -DE/DX =    0.0                 !
 ! A5    A(3,2,4)              110.0084         -DE/DX =    0.0                 !
 ! A6    A(3,2,5)              110.1882         -DE/DX =    0.0                 !
 ! A7    A(4,2,5)              106.4033         -DE/DX =    0.0                 !
 ! A8    A(2,3,6)              120.3429         -DE/DX =    0.0                 !
 ! A9    A(2,3,7)              119.092          -DE/DX =    0.0                 !
 ! A10   A(6,3,7)              119.8181         -DE/DX =    0.0                 !
 ! D1    D(8,1,2,3)            174.5508         -DE/DX =    0.0                 !
 ! D2    D(8,1,2,4)            -64.179          -DE/DX =    0.0                 !
 ! D3    D(8,1,2,5)             53.5984         -DE/DX =    0.0                 !
 ! D4    D(1,2,3,6)            167.1219         -DE/DX =    0.0                 !
 ! D5    D(1,2,3,7)            -22.7955         -DE/DX =    0.0                 !
 ! D6    D(4,2,3,6)             45.1484         -DE/DX =    0.0                 !
 ! D7    D(4,2,3,7)           -144.7689         -DE/DX =    0.0                 !
 ! D8    D(5,2,3,6)            -71.8586         -DE/DX =    0.0                 !
 ! D9    D(5,2,3,7)             98.224          -DE/DX =    0.0                 !
 --------------------------------------------------------------------------------
 GradGradGradGradGradGradGradGradGradGradGradGradGradGradGradGradGradGrad

 Leave Link  103 at Wed Aug 28 23:55:00 2019, MaxMem=   671088640 cpu:              85.2 elap:              13.1
 (Enter /shared/centos7/gaussian/g16/l9999.exe)

 ----------------------------------------------------------------------

 Electric dipole moment (input orientation):
 (Debye = 10**-18 statcoulomb cm , SI units = C m)
                  (au)            (Debye)         (10**-30 SI)
   Tot        0.686175D+00      0.174408D+01      0.581763D+01
   x         -0.114252D+00     -0.290400D+00     -0.968669D+00
   y          0.659204D+00      0.167553D+01      0.558897D+01
   z          0.152420D+00      0.387414D+00      0.129227D+01

 Dipole polarizability, Alpha (input orientation).
 (esu units = cm**3 , SI units = C**2 m**2 J**-1)
 Alpha(0;0):
               (au)            (10**-24 esu)      (10**-40 SI)
   iso        0.285346D+02      0.422839D+01      0.470472D+01
   aniso      0.914001D+01      0.135441D+01      0.150698D+01
   xx         0.334221D+02      0.495264D+01      0.551056D+01
   yx        -0.152901D+01     -0.226575D+00     -0.252099D+00
   yy         0.287396D+02      0.425877D+01      0.473852D+01
   zx        -0.692441D+00     -0.102609D+00     -0.114168D+00
   zy        -0.313084D+00     -0.463943D-01     -0.516206D-01
   zz         0.234421D+02      0.347377D+01      0.386509D+01

 ----------------------------------------------------------------------

 Dipole orientation:
     8         -2.14567358         -0.35795244         -0.35790669
     6          0.11939033          0.17837512          0.96211156
     6          2.23193245          0.23324800         -0.86347116
     1         -0.00594957          1.99479918          1.95784535
     1          0.46624157         -1.26859898          2.41951742
     1          4.04406270          0.98838536         -0.31828338
     1          2.03841962         -0.75901523         -2.63294148
     1         -3.48921115         -0.55360467          0.84229209

 Electric dipole moment (dipole orientation):
 (Debye = 10**-18 statcoulomb cm , SI units = C m)
                  (au)            (Debye)         (10**-30 SI)
   Tot        0.686175D+00      0.174408D+01      0.581763D+01
   x          0.000000D+00      0.000000D+00      0.000000D+00
   y          0.000000D+00      0.000000D+00      0.000000D+00
   z          0.686175D+00      0.174408D+01      0.581763D+01

 Dipole polarizability, Alpha (dipole orientation).
 (esu units = cm**3 , SI units = C**2 m**2 J**-1)
 Alpha(0;0):
               (au)            (10**-24 esu)      (10**-40 SI)
   iso        0.285346D+02      0.422839D+01      0.470472D+01
   aniso      0.914001D+01      0.135441D+01      0.150698D+01
   xx         0.324350D+02      0.480637D+01      0.534781D+01
   yx         0.171598D+01      0.254282D+00      0.282927D+00
   yy         0.241540D+02      0.357926D+01      0.398246D+01
   zx        -0.255048D+01     -0.377942D+00     -0.420517D+00
   zy         0.103952D+01      0.154042D+00      0.171394D+00
   zz         0.290148D+02      0.429955D+01      0.478389D+01

 ----------------------------------------------------------------------

 Test job not archived.
 1\1\GINC-C2000\Freq\UM062X\CC-pVTZ\C2H5O1(2)\HARMS.N\28-Aug-2019\0\\#P
  Geom=AllCheck Guess=TCheck SCRF=Check Test GenChk UM062X/CC-pVTZ Freq
 \\Gaussian input prepared by ASE\\0,2\O,-1.1029411187,-0.3769393984,-0
 .0491530516\C,-0.0106724815,0.5204939085,0.0329303835\C,1.2465313466,-
 0.2541628512,-0.0234181598\H,-0.037419975,1.2533405178,-0.7844979417\H
 ,-0.0599249281,1.0979736033,0.970413821\H,2.1879814153,0.2463396554,-0
 .1835596665\H,1.2336349886,-1.2956736509,0.2559808931\H,-1.9170842472,
 0.1148112156,0.0730107219\\Version=EM64L-G16RevA.03\State=2-A\HF=-154.
 3535809\S2=0.755199\S2-1=0.\S2A=0.750021\RMSD=1.884e-09\RMSF=2.803e-06
 \ZeroPoint=0.0650353\Thermal=0.0698217\Dipole=-0.114252,0.6592044,0.15
 24203\DipoleDeriv=-0.8277557,-0.2868511,-0.0345885,-0.3264899,-0.49357
 07,0.0210609,-0.0438148,0.0138239,-0.5172893,0.701744,0.2186379,0.0219
 44,0.2799063,0.3964133,0.0164402,0.0501743,0.014465,0.424612,-0.019014
 2,0.0177236,-0.0485019,0.0501794,0.0331289,-0.0855239,-0.0546556,-0.08
 50764,-0.3194866,-0.0252463,0.0073988,-0.0108085,-0.0336245,-0.0878017
 ,0.0943807,-0.0031649,0.1327983,-0.0717439,-0.0580145,0.0257144,0.0239
 244,-0.0241215,-0.0466971,-0.08888,0.0162377,-0.1327967,-0.1149123,-0.
 0475548,-0.0215444,0.0179581,-0.0494258,0.0142147,0.0297834,0.0025171,
 0.0293574,0.1362031,0.03158,-0.0115826,0.0172509,0.0319514,-0.0174309,
 0.0384943,0.0181429,0.0482917,0.1236444,0.2442615,0.0505034,0.0128214,
 0.0716246,0.2017434,-0.0257556,0.0145633,-0.0208632,0.3389726\Polar=33
 .4220739,-1.5290062,28.7395867,-0.6924408,-0.313084,23.4421455\Quadrup
 ole=1.8540521,-0.5149537,-1.3390984,-1.3104307,-0.3564832,-0.3116419\P
 G=C01 [X(C2H5O1)]\NImag=0\\0.63321913,-0.09547851,0.37121239,-0.047226
 13,0.05628689,0.05540456,-0.17872332,-0.05757419,-0.00249772,0.5064884
 9,-0.10085548,-0.16348617,-0.00846913,-0.01842875,0.53349633,-0.013270
 48,-0.01024415,-0.06099196,-0.00384213,-0.02324079,0.51495424,-0.04548
 065,0.01290421,0.00256850,-0.19496140,0.06695366,0.01019954,0.58884250
 ,-0.02815866,0.01473804,0.00132774,0.08811993,-0.13597649,0.00637587,0
 .03069280,0.60498308,0.00165052,-0.00038040,0.00287744,0.01045538,0.00
 761232,-0.04487396,-0.06640124,-0.12136506,0.08196343,-0.00948075,-0.0
 2891147,0.02040464,-0.05164258,0.01146617,-0.01586038,-0.00038352,0.02
 153266,-0.01695577,0.05944222,-0.01265470,-0.02066436,0.01407658,0.006
 37945,-0.14392726,0.11802799,0.00654600,-0.01513368,0.01157432,-0.0032
 8002,0.16914274,0.00471126,-0.00232907,0.00940410,-0.01059049,0.119058
 85,-0.19098254,-0.00060162,-0.00213778,0.00360848,0.00882361,-0.131875
 15,0.20309169,-0.00993048,-0.02674042,-0.02571314,-0.04650021,0.013462
 38,0.02359282,-0.00617610,0.01711754,0.01915278,0.00379661,-0.00037969
 ,-0.00256151,0.05787412,-0.01243148,-0.01899263,-0.02040333,0.00394381
 ,-0.10099467,-0.09774513,0.01013829,-0.01097528,-0.01366905,-0.0010243
 7,0.01078916,0.01737997,-0.00281931,0.12054569,-0.00584557,-0.00335994
 ,0.00462652,0.00992976,-0.09503678,-0.22129430,0.00594213,-0.00264536,
 0.00210938,0.00310722,-0.01124572,-0.02501824,-0.01312684,0.11363067,0
 .24007917,-0.00508482,0.00339952,0.00068185,-0.00992354,-0.01624365,0.
 00225939,-0.28371687,-0.11945500,0.04455549,0.00058384,0.00024962,-0.0
 0059934,-0.00011926,0.00055742,0.00050849,0.29468290,0.00365679,-0.001
 65323,-0.00040215,0.01248787,0.01116737,-0.00237632,-0.12258788,-0.121
 55711,0.03213219,-0.00089867,0.00044448,0.00056636,-0.00052528,-0.0003
 0952,-0.00055038,0.12959654,0.11610630,-0.00086406,-0.00102066,0.00054
 192,0.00074501,0.00225813,-0.00007420,0.04122099,0.02912156,-0.0161532
 1,0.00029352,-0.00089887,0.00048274,-0.00084721,-0.00004820,0.00021696
 ,-0.04614529,-0.03169054,0.01312946,0.00329393,-0.00125198,-0.00003631
 ,0.00273304,0.02396571,-0.00715315,-0.05315326,-0.00462070,0.00721624,
 -0.00365104,0.00238606,0.00004711,-0.00103125,0.00057975,0.00015322,0.
 00425213,-0.02258577,0.00597610,0.04704298,-0.00068462,0.00176069,-0.0
 0050917,-0.00369176,-0.01072163,0.00593768,-0.00188172,-0.33280045,0.0
 8394376,0.00182649,-0.00057420,-0.00128732,0.00033967,-0.00028296,-0.0
 0006043,0.00285757,-0.00515514,0.00219009,0.00165319,0.34742233,-0.000
 20556,0.00062446,-0.00048541,0.00010332,-0.00378402,0.00445794,0.00760
 730,0.08998624,-0.02963522,-0.00040259,0.00091372,-0.00063560,0.000076
 25,0.00044415,-0.00098608,-0.00103158,0.00225451,0.00115587,-0.0062524
 4,-0.09018346,0.02627684,-0.38781304,0.19365284,0.05181831,-0.02747048
 ,0.01967995,0.00407439,-0.00497071,-0.00522857,0.00032661,0.00133522,0
 .00075328,0.00077098,0.00208657,0.00105589,-0.00066841,-0.00067438,0.0
 0085640,-0.00037908,0.00051346,-0.00041882,0.00010530,0.41699337,0.246
 60666,-0.18291473,-0.04190744,-0.03123636,0.01044253,0.00326486,-0.002
 76537,-0.00327811,0.00015192,-0.00071079,-0.00007688,0.00062415,-0.000
 45490,0.00022021,-0.00073206,-0.00096201,0.00095686,0.00008849,-0.0001
 2627,0.00035135,-0.00025560,-0.21035097,0.17429877,0.06105003,-0.03957
 714,-0.01137717,-0.00430313,0.00160144,-0.00119522,-0.00053561,-0.0006
 6322,0.00010367,0.00058974,-0.00057287,0.00004937,-0.00057315,0.000410
 92,0.00026660,-0.00022901,0.00006633,0.00070048,0.00004923,-0.00003114
 ,-0.00014835,-0.05604810,0.03876567,0.01160063\\-0.00000018,0.00000035
 ,0.00000046,-0.00000002,0.00000006,0.00000212,-0.00000019,-0.00000036,
 -0.00000483,-0.00000170,0.00000336,0.00000484,0.00000190,-0.00000376,0
 .00000433,-0.00000041,0.00000089,-0.00000393,0.00000054,-0.00000038,-0
 .00000719,0.00000007,-0.00000016,0.00000420\\\@


 NEVER LOSE YOUR IGNORANCE, IT CAN'T BE REPLACED.
   -- ANDY CAPP
 Job cpu time:       0 days  0 hours 47 minutes  3.3 seconds.
 Elapsed time:       0 days  0 hours  6 minutes  0.9 seconds.
 File lengths (MBytes):  RWF=   1312 Int=      0 D2E=      0 Chk=     32 Scr=     32
 Normal termination of Gaussian 16 at Wed Aug 28 23:55:00 2019.
