 Entering Gaussian System, Link 0=g16
 Initial command:
 /shared/centos7/gaussian/g16/l1.exe "/scratch/harms.n/gauss_scrdir/Gau-46118.inp" -scrdir="/scratch/harms.n/gauss_scrdir/"
 Entering Link 1 = /shared/centos7/gaussian/g16/l1.exe PID=     46121.
  
 Copyright (c) 1988,1990,1992,1993,1995,1998,2003,2009,2016,
            Gaussian, Inc.  All Rights Reserved.
  
 This is part of the Gaussian(R) 16 program.  It is based on
 the Gaussian(R) 09 system (copyright 2009, Gaussian, Inc.),
 the Gaussian(R) 03 system (copyright 2003, Gaussian, Inc.),
 the Gaussian(R) 98 system (copyright 1998, Gaussian, Inc.),
 the Gaussian(R) 94 system (copyright 1995, Gaussian, Inc.),
 the Gaussian 92(TM) system (copyright 1992, Gaussian, Inc.),
 the Gaussian 90(TM) system (copyright 1990, Gaussian, Inc.),
 the Gaussian 88(TM) system (copyright 1988, Gaussian, Inc.),
 the Gaussian 86(TM) system (copyright 1986, Carnegie Mellon
 University), and the Gaussian 82(TM) system (copyright 1983,
 Carnegie Mellon University). Gaussian is a federally registered
 trademark of Gaussian, Inc.
  
 This software contains proprietary and confidential information,
 including trade secrets, belonging to Gaussian, Inc.
  
 This software is provided under written license and may be
 used, copied, transmitted, or stored only in accord with that
 written license.
  
 The following legend is applicable only to US Government
 contracts under FAR:
  
                    RESTRICTED RIGHTS LEGEND
  
 Use, reproduction and disclosure by the US Government is
 subject to restrictions as set forth in subparagraphs (a)
 and (c) of the Commercial Computer Software - Restricted
 Rights clause in FAR 52.227-19.
  
 Gaussian, Inc.
 340 Quinnipiac St., Bldg. 40, Wallingford CT 06492
  
  
 ---------------------------------------------------------------
 Warning -- This program may not be used in any manner that
 competes with the business of Gaussian, Inc. or will provide
 assistance to any competitor of Gaussian, Inc.  The licensee
 of this program is prohibited from giving any competitor of
 Gaussian, Inc. access to this program.  By using this program,
 the user acknowledges that Gaussian, Inc. is engaged in the
 business of creating and licensing software in the field of
 computational chemistry and represents and warrants to the
 licensee that it is not a competitor of Gaussian, Inc. and that
 it will not use this program in any manner prohibited above.
 ---------------------------------------------------------------
  

 Cite this work as:
 Gaussian 16, Revision A.03,
 M. J. Frisch, G. W. Trucks, H. B. Schlegel, G. E. Scuseria, 
 M. A. Robb, J. R. Cheeseman, G. Scalmani, V. Barone, 
 G. A. Petersson, H. Nakatsuji, X. Li, M. Caricato, A. V. Marenich, 
 J. Bloino, B. G. Janesko, R. Gomperts, B. Mennucci, H. P. Hratchian, 
 J. V. Ortiz, A. F. Izmaylov, J. L. Sonnenberg, D. Williams-Young, 
 F. Ding, F. Lipparini, F. Egidi, J. Goings, B. Peng, A. Petrone, 
 T. Henderson, D. Ranasinghe, V. G. Zakrzewski, J. Gao, N. Rega, 
 G. Zheng, W. Liang, M. Hada, M. Ehara, K. Toyota, R. Fukuda, 
 J. Hasegawa, M. Ishida, T. Nakajima, Y. Honda, O. Kitao, H. Nakai, 
 T. Vreven, K. Throssell, J. A. Montgomery, Jr., J. E. Peralta, 
 F. Ogliaro, M. J. Bearpark, J. J. Heyd, E. N. Brothers, K. N. Kudin, 
 V. N. Staroverov, T. A. Keith, R. Kobayashi, J. Normand, 
 K. Raghavachari, A. P. Rendell, J. C. Burant, S. S. Iyengar, 
 J. Tomasi, M. Cossi, J. M. Millam, M. Klene, C. Adamo, R. Cammi, 
 J. W. Ochterski, R. L. Martin, K. Morokuma, O. Farkas, 
 J. B. Foresman, and D. J. Fox, Gaussian, Inc., Wallingford CT, 2016.
 
 ******************************************
 Gaussian 16:  EM64L-G16RevA.03 25-Dec-2016
                22-May-2019 
 ******************************************
 %nprocshared=20
 Will use up to   20 processors via shared memory.
 %mem=5GB
 ----------------------------------------------------------------------
 #p m062x/cc-pVTZ opt=(calcfc,maxcycles=900) freq IOP(7/33=1,2/16=3) sc
 f=(maxcycle=900)
 ----------------------------------------------------------------------
 1/6=900,10=4,18=20,19=15,26=3,38=1/1,3;
 2/9=110,12=2,16=3,17=6,18=5,40=1/2;
 3/5=16,6=1,11=2,25=1,30=1,71=2,74=-55,140=1/1,2,3;
 4//1;
 5/5=2,7=900,38=5/2;
 8/6=4,10=90,11=11/1;
 11/6=1,8=1,9=11,15=111,16=1/1,2,10;
 10/6=1,13=1/2;
 6/7=2,8=2,9=2,10=2,28=1/1;
 7/10=1,18=20,25=1,33=1/1,2,3,16;
 1/6=900,10=4,18=20,19=15,26=3/3(2);
 2/9=110,16=3/2;
 99//99;
 2/9=110,16=3/2;
 3/5=16,6=1,11=2,25=1,30=1,71=1,74=-55/1,2,3;
 4/5=5,16=3,69=1/1;
 5/5=2,7=900,38=5/2;
 7/33=1/1,2,3,16;
 1/6=900,18=20,19=15,26=3/3(-5);
 2/9=110,16=3/2;
 6/7=2,8=2,9=2,10=2,19=2,28=1/1;
 99/9=1/99;
 Leave Link    1 at Wed May 22 18:33:38 2019, MaxMem=   671088640 cpu:              57.2 elap:               3.0
 (Enter /shared/centos7/gaussian/g16/l101.exe)
 ------------------------------
 Gaussian input prepared by ASE
 ------------------------------
 Symbolic Z-matrix:
 Charge =  0 Multiplicity = 2
 O                    -1.35979  -0.02059   0.89395 
 C                    -0.35253  -0.5417    0.06532 
 C                     0.06028  -1.94657   0.48315 
 H                    -0.69068  -0.56499  -0.98366 
 H                     0.5246    0.14006   0.07433 
 H                    -0.52206  -2.46067   1.25314 
 H                     0.54307  -2.57886  -0.26662 
 H                    -1.38545   0.94874   0.7279 
 
 ITRead=  0  0  0  0  0  0  0  0
 MicOpt= -1 -1 -1 -1 -1 -1 -1 -1
 NAtoms=      8 NQM=        8 NQMF=       0 NMMI=      0 NMMIF=      0
                NMic=       0 NMicF=      0.
                    Isotopes and Nuclear Properties:
 (Nuclear quadrupole moments (NQMom) in fm**2, nuclear magnetic moments (NMagM)
  in nuclear magnetons)

  Atom         1           2           3           4           5           6           7           8
 IAtWgt=          16          12          12           1           1           1           1           1
 AtmWgt=  15.9949146  12.0000000  12.0000000   1.0078250   1.0078250   1.0078250   1.0078250   1.0078250
 NucSpn=           0           0           0           1           1           1           1           1
 AtZEff=  -0.0000000  -0.0000000  -0.0000000  -0.0000000  -0.0000000  -0.0000000  -0.0000000  -0.0000000
 NQMom=    0.0000000   0.0000000   0.0000000   0.0000000   0.0000000   0.0000000   0.0000000   0.0000000
 NMagM=    0.0000000   0.0000000   0.0000000   2.7928460   2.7928460   2.7928460   2.7928460   2.7928460
 AtZNuc=   8.0000000   6.0000000   6.0000000   1.0000000   1.0000000   1.0000000   1.0000000   1.0000000
 Leave Link  101 at Wed May 22 18:33:39 2019, MaxMem=   671088640 cpu:               5.3 elap:               0.3
 (Enter /shared/centos7/gaussian/g16/l103.exe)

 GradGradGradGradGradGradGradGradGradGradGradGradGradGradGradGradGradGrad
 Berny optimization.
 Initialization pass.
                           ----------------------------
                           !    Initial Parameters    !
                           ! (Angstroms and Degrees)  !
 --------------------------                            --------------------------
 ! Name  Definition              Value          Derivative Info.                !
 --------------------------------------------------------------------------------
 ! R1    R(1,2)                  1.4046         calculate D2E/DX2 analytically  !
 ! R2    R(1,8)                  0.9838         calculate D2E/DX2 analytically  !
 ! R3    R(2,3)                  1.5227         calculate D2E/DX2 analytically  !
 ! R4    R(2,4)                  1.1024         calculate D2E/DX2 analytically  !
 ! R5    R(2,5)                  1.111          calculate D2E/DX2 analytically  !
 ! R6    R(3,6)                  1.0938         calculate D2E/DX2 analytically  !
 ! R7    R(3,7)                  1.0932         calculate D2E/DX2 analytically  !
 ! A1    A(2,1,8)              106.5403         calculate D2E/DX2 analytically  !
 ! A2    A(1,2,3)              112.0143         calculate D2E/DX2 analytically  !
 ! A3    A(1,2,4)              110.4409         calculate D2E/DX2 analytically  !
 ! A4    A(1,2,5)              109.4956         calculate D2E/DX2 analytically  !
 ! A5    A(3,2,4)              108.9517         calculate D2E/DX2 analytically  !
 ! A6    A(3,2,5)              110.4813         calculate D2E/DX2 analytically  !
 ! A7    A(4,2,5)              105.2406         calculate D2E/DX2 analytically  !
 ! A8    A(2,3,6)              118.8479         calculate D2E/DX2 analytically  !
 ! A9    A(2,3,7)              117.7212         calculate D2E/DX2 analytically  !
 ! A10   A(6,3,7)              116.4945         calculate D2E/DX2 analytically  !
 ! D1    D(8,1,2,3)            164.3371         calculate D2E/DX2 analytically  !
 ! D2    D(8,1,2,4)            -74.0253         calculate D2E/DX2 analytically  !
 ! D3    D(8,1,2,5)             41.4139         calculate D2E/DX2 analytically  !
 ! D4    D(1,2,3,6)              8.2625         calculate D2E/DX2 analytically  !
 ! D5    D(1,2,3,7)            158.1238         calculate D2E/DX2 analytically  !
 ! D6    D(4,2,3,6)           -114.2262         calculate D2E/DX2 analytically  !
 ! D7    D(4,2,3,7)             35.6351         calculate D2E/DX2 analytically  !
 ! D8    D(5,2,3,6)            130.626          calculate D2E/DX2 analytically  !
 ! D9    D(5,2,3,7)            -79.5127         calculate D2E/DX2 analytically  !
 --------------------------------------------------------------------------------
 Trust Radius=3.00D-01 FncErr=1.00D-07 GrdErr=1.00D-06 EigMax=2.50D+02 EigMin=1.00D-04
 Number of steps in this run=    100 maximum allowed number of steps=    100.
 GradGradGradGradGradGradGradGradGradGradGradGradGradGradGradGradGradGrad

 Leave Link  103 at Wed May 22 18:33:39 2019, MaxMem=   671088640 cpu:               0.2 elap:               0.0
 (Enter /shared/centos7/gaussian/g16/l202.exe)
                          Input orientation:                          
 ---------------------------------------------------------------------
 Center     Atomic      Atomic             Coordinates (Angstroms)
 Number     Number       Type             X           Y           Z
 ---------------------------------------------------------------------
      1          8           0       -1.359792   -0.020585    0.893949
      2          6           0       -0.352530   -0.541698    0.065317
      3          6           0        0.060283   -1.946569    0.483148
      4          1           0       -0.690682   -0.564993   -0.983661
      5          1           0        0.524604    0.140059    0.074332
      6          1           0       -0.522058   -2.460668    1.253141
      7          1           0        0.543072   -2.578860   -0.266615
      8          1           0       -1.385446    0.948737    0.727903
 ---------------------------------------------------------------------
                    Distance matrix (angstroms):
                    1          2          3          4          5
     1  O    0.000000
     2  C    1.404552   0.000000
     3  C    2.427917   1.522715   0.000000
     4  H    2.066279   1.102381   2.150403   0.000000
     5  H    2.061195   1.110963   2.176405   1.758797   0.000000
     6  H    2.604768   2.263208   1.093758   2.936886   3.041195
     7  H    3.393018   2.249958   1.093171   2.468191   2.740275
     8  H    0.983776   1.930629   3.245432   2.388205   2.174719
                    6          7          8
     6  H    0.000000
     7  H    1.859605   0.000000
     8  H    3.556030   4.141520   0.000000
 Stoichiometry    C2H5O(2)
 Framework group  C1[X(C2H5O)]
 Deg. of freedom    18
 Full point group                 C1      NOp   1
 Largest Abelian subgroup         C1      NOp   1
 Largest concise Abelian subgroup C1      NOp   1
                         Standard orientation:                         
 ---------------------------------------------------------------------
 Center     Atomic      Atomic             Coordinates (Angstroms)
 Number     Number       Type             X           Y           Z
 ---------------------------------------------------------------------
      1          8           0        1.122122   -0.386169    0.040410
      2          6           0        0.034241    0.501410    0.001876
      3          6           0       -1.297820   -0.231646   -0.081193
      4          1           0        0.032406    1.147189    0.895302
      5          1           0        0.151125    1.194023   -0.858859
      6          1           0       -1.309804   -1.319189    0.034631
      7          1           0       -2.193832    0.303357    0.244317
      8          1           0        1.924604    0.145390   -0.162766
 ---------------------------------------------------------------------
 Rotational constants (GHZ):          41.0947216           9.6334379           8.2428796
 Leave Link  202 at Wed May 22 18:33:39 2019, MaxMem=   671088640 cpu:               0.8 elap:               0.1
 (Enter /shared/centos7/gaussian/g16/l301.exe)
 Standard basis: CC-pVTZ (5D, 7F)
 Ernie: Thresh=  0.10000D-02 Tol=  0.10000D-05 Strict=F.
 Ernie:  9 primitive shells out of 118 were deleted.
 There are   180 symmetry adapted cartesian basis functions of A   symmetry.
 There are   160 symmetry adapted basis functions of A   symmetry.
   160 basis functions,   241 primitive gaussians,   180 cartesian basis functions
    13 alpha electrons       12 beta electrons
       nuclear repulsion energy        74.3423393123 Hartrees.
 IExCor= 4336 DFT=T Ex+Corr=M062X ExCW=0 ScaHFX=  0.540000
 ScaDFX=  1.000000  1.000000  1.000000  1.000000 ScalE2=  1.000000  1.000000
 IRadAn=      5 IRanWt=     -1 IRanGd=            0 ICorTp=0 IEmpDi=  4
 NAtoms=    8 NActive=    8 NUniq=    8 SFac= 1.00D+00 NAtFMM=   60 NAOKFM=F Big=F
 Integral buffers will be    131072 words long.
 Raffenetti 2 integral format.
 Two-electron integral symmetry is turned on.
 Leave Link  301 at Wed May 22 18:33:39 2019, MaxMem=   671088640 cpu:               1.5 elap:               0.1
 (Enter /shared/centos7/gaussian/g16/l302.exe)
 NPDir=0 NMtPBC=     1 NCelOv=     1 NCel=       1 NClECP=     1 NCelD=      1
         NCelK=      1 NCelE2=     1 NClLst=     1 CellRange=     0.0.
 One-electron integrals computed using PRISM.
 One-electron integral symmetry used in STVInt
 NBasis=   160 RedAO= T EigKep=  1.08D-03  NBF=   160
 NBsUse=   160 1.00D-06 EigRej= -1.00D+00 NBFU=   160
 Precomputing XC quadrature grid using
 IXCGrd= 4 IRadAn=           5 IRanWt=          -1 IRanGd=           0 AccXCQ= 0.00D+00.
 Generated NRdTot=       0 NPtTot=           0 NUsed=           0 NTot=          32
 NSgBfM=   180   180   180   180   180 MxSgAt=     8 MxSgA2=     8.
 Leave Link  302 at Wed May 22 18:33:39 2019, MaxMem=   671088640 cpu:               4.2 elap:               0.2
 (Enter /shared/centos7/gaussian/g16/l303.exe)
 DipDrv:  MaxL=1.
 Leave Link  303 at Wed May 22 18:33:39 2019, MaxMem=   671088640 cpu:               0.5 elap:               0.0
 (Enter /shared/centos7/gaussian/g16/l401.exe)
 ExpMin= 1.03D-01 ExpMax= 1.53D+04 ExpMxC= 5.22D+02 IAcc=3 IRadAn=         5 AccDes= 0.00D+00
 Harris functional with IExCor= 1009 and IRadAn=       5 diagonalized for initial guess.
 HarFok:  IExCor= 1009 AccDes= 0.00D+00 IRadAn=         5 IDoV= 1 UseB2=F ITyADJ=14
 ICtDFT=  3500011 ScaDFX=  1.000000  1.000000  1.000000  1.000000
 FoFCou: FMM=F IPFlag=           0 FMFlag=      100000 FMFlg1=           0
         NFxFlg=           0 DoJE=T BraDBF=F KetDBF=T FulRan=T
         wScrn=  0.000000 ICntrl=       500 IOpCl=  0 I1Cent=   200000004 NGrid=           0
         NMat0=    1 NMatS0=      1 NMatT0=    0 NMatD0=    1 NMtDS0=    0 NMtDT0=    0
 Petite list used in FoFCou.
 Harris En= -154.279464518377    
 JPrj=0 DoOrth=F DoCkMO=F.
 Initial guess <Sx>= 0.0000 <Sy>= 0.0000 <Sz>= 0.5000 <S**2>= 0.7500 S= 0.5000
 Leave Link  401 at Wed May 22 18:33:40 2019, MaxMem=   671088640 cpu:               9.7 elap:               0.5
 (Enter /shared/centos7/gaussian/g16/l502.exe)
 Keep R1 and R2 ints in memory in canonical form, NReq=186086596.
 FoFCou: FMM=F IPFlag=           0 FMFlag=           0 FMFlg1=           0
         NFxFlg=           0 DoJE=F BraDBF=F KetDBF=F FulRan=T
         wScrn=  0.000000 ICntrl=       600 IOpCl=  0 I1Cent=           0 NGrid=           0
         NMat0=    1 NMatS0=  12880 NMatT0=    0 NMatD0=    1 NMtDS0=    0 NMtDT0=    0
 Symmetry not used in FoFCou.
 Two-electron integral symmetry not used.
 UHF open shell SCF:
 Using DIIS extrapolation, IDIIS=  1040.
 NGot=   671088640 LenX=   505111240 LenY=   505078399
 Requested convergence on RMS density matrix=1.00D-08 within 900 cycles.
 Requested convergence on MAX density matrix=1.00D-06.
 Requested convergence on             energy=1.00D-06.
 No special actions if energy rises.
 Integral accuracy reduced to 1.0D-05 until final iterations.

 Cycle   1  Pass 0  IDiag  1:
 E= -154.247086098528    
 DIIS: error= 2.27D-02 at cycle   1 NSaved=   1.
 NSaved= 1 IEnMin= 1 EnMin= -154.247086098528     IErMin= 1 ErrMin= 2.27D-02
 ErrMax= 2.27D-02  0.00D+00 EMaxC= 1.00D-01 BMatC= 5.16D-01 BMatP= 5.16D-01
 IDIUse=3 WtCom= 7.73D-01 WtEn= 2.27D-01
 Coeff-Com:  0.100D+01
 Coeff-En:   0.100D+01
 Coeff:      0.100D+01
 Gap=     0.277 Goal=   None    Shift=    0.000
 Gap=     0.328 Goal=   None    Shift=    0.000
 GapD=    0.277 DampG=1.000 DampE=0.500 DampFc=0.5000 IDamp=-1.
 Damping current iteration by 5.00D-01
 RMSDP=2.95D-03 MaxDP=1.09D-01              OVMax= 1.39D-01

 Cycle   2  Pass 0  IDiag  1:
 E= -154.297246989729     Delta-E=       -0.050160891201 Rises=F Damp=T
 DIIS: error= 5.98D-03 at cycle   2 NSaved=   2.
 NSaved= 2 IEnMin= 2 EnMin= -154.297246989729     IErMin= 2 ErrMin= 5.98D-03
 ErrMax= 5.98D-03  0.00D+00 EMaxC= 1.00D-01 BMatC= 3.99D-02 BMatP= 5.16D-01
 IDIUse=3 WtCom= 9.40D-01 WtEn= 5.98D-02
 Coeff-Com: -0.446D-01 0.104D+01
 Coeff-En:   0.000D+00 0.100D+01
 Coeff:     -0.419D-01 0.104D+01
 Gap=     0.315 Goal=   None    Shift=    0.000
 Gap=     0.353 Goal=   None    Shift=    0.000
 RMSDP=5.91D-04 MaxDP=2.50D-02 DE=-5.02D-02 OVMax= 6.85D-02

 Cycle   3  Pass 0  IDiag  1:
 E= -154.347731104666     Delta-E=       -0.050484114937 Rises=F Damp=F
 DIIS: error= 2.84D-03 at cycle   3 NSaved=   3.
 NSaved= 3 IEnMin= 3 EnMin= -154.347731104666     IErMin= 3 ErrMin= 2.84D-03
 ErrMax= 2.84D-03  0.00D+00 EMaxC= 1.00D-01 BMatC= 8.51D-03 BMatP= 3.99D-02
 IDIUse=3 WtCom= 9.72D-01 WtEn= 2.84D-02
 Coeff-Com: -0.684D-01 0.287D+00 0.781D+00
 Coeff-En:   0.000D+00 0.000D+00 0.100D+01
 Coeff:     -0.664D-01 0.279D+00 0.788D+00
 Gap=     0.331 Goal=   None    Shift=    0.000
 Gap=     0.329 Goal=   None    Shift=    0.000
 RMSDP=2.20D-04 MaxDP=8.76D-03 DE=-5.05D-02 OVMax= 1.38D-02

 Cycle   4  Pass 0  IDiag  1:
 E= -154.349031268978     Delta-E=       -0.001300164311 Rises=F Damp=F
 DIIS: error= 1.64D-03 at cycle   4 NSaved=   4.
 NSaved= 4 IEnMin= 4 EnMin= -154.349031268978     IErMin= 4 ErrMin= 1.64D-03
 ErrMax= 1.64D-03  0.00D+00 EMaxC= 1.00D-01 BMatC= 1.96D-03 BMatP= 8.51D-03
 IDIUse=3 WtCom= 9.84D-01 WtEn= 1.64D-02
 Coeff-Com: -0.216D-01 0.421D-01 0.354D+00 0.626D+00
 Coeff-En:   0.000D+00 0.000D+00 0.442D-01 0.956D+00
 Coeff:     -0.212D-01 0.414D-01 0.349D+00 0.631D+00
 Gap=     0.325 Goal=   None    Shift=    0.000
 Gap=     0.338 Goal=   None    Shift=    0.000
 RMSDP=7.95D-05 MaxDP=2.97D-03 DE=-1.30D-03 OVMax= 8.81D-03

 Cycle   5  Pass 0  IDiag  1:
 E= -154.349472468266     Delta-E=       -0.000441199289 Rises=F Damp=F
 DIIS: error= 3.64D-04 at cycle   5 NSaved=   5.
 NSaved= 5 IEnMin= 5 EnMin= -154.349472468266     IErMin= 5 ErrMin= 3.64D-04
 ErrMax= 3.64D-04  0.00D+00 EMaxC= 1.00D-01 BMatC= 7.27D-05 BMatP= 1.96D-03
 IDIUse=3 WtCom= 9.96D-01 WtEn= 3.64D-03
 Coeff-Com:  0.407D-02-0.202D-01-0.365D-01 0.600D-01 0.993D+00
 Coeff-En:   0.000D+00 0.000D+00 0.000D+00 0.000D+00 0.100D+01
 Coeff:      0.405D-02-0.202D-01-0.364D-01 0.598D-01 0.993D+00
 Gap=     0.327 Goal=   None    Shift=    0.000
 Gap=     0.338 Goal=   None    Shift=    0.000
 RMSDP=3.51D-05 MaxDP=1.87D-03 DE=-4.41D-04 OVMax= 5.07D-03

 Cycle   6  Pass 0  IDiag  1:
 E= -154.349515177281     Delta-E=       -0.000042709014 Rises=F Damp=F
 DIIS: error= 1.63D-04 at cycle   6 NSaved=   6.
 NSaved= 6 IEnMin= 6 EnMin= -154.349515177281     IErMin= 6 ErrMin= 1.63D-04
 ErrMax= 1.63D-04  0.00D+00 EMaxC= 1.00D-01 BMatC= 1.00D-05 BMatP= 7.27D-05
 IDIUse=3 WtCom= 9.98D-01 WtEn= 1.63D-03
 Coeff-Com:  0.328D-02-0.749D-02-0.618D-01-0.102D+00 0.178D-01 0.115D+01
 Coeff-En:   0.000D+00 0.000D+00 0.000D+00 0.000D+00 0.000D+00 0.100D+01
 Coeff:      0.327D-02-0.747D-02-0.617D-01-0.102D+00 0.177D-01 0.115D+01
 Gap=     0.328 Goal=   None    Shift=    0.000
 Gap=     0.338 Goal=   None    Shift=    0.000
 RMSDP=2.04D-05 MaxDP=1.15D-03 DE=-4.27D-05 OVMax= 2.78D-03

 Cycle   7  Pass 0  IDiag  1:
 E= -154.349522832050     Delta-E=       -0.000007654769 Rises=F Damp=F
 DIIS: error= 4.63D-05 at cycle   7 NSaved=   7.
 NSaved= 7 IEnMin= 7 EnMin= -154.349522832050     IErMin= 7 ErrMin= 4.63D-05
 ErrMax= 4.63D-05  0.00D+00 EMaxC= 1.00D-01 BMatC= 1.46D-06 BMatP= 1.00D-05
 IDIUse=1 WtCom= 1.00D+00 WtEn= 0.00D+00
 Coeff-Com:  0.534D-03-0.486D-03-0.160D-01-0.371D-01-0.667D-01 0.394D+00
 Coeff-Com:  0.726D+00
 Coeff:      0.534D-03-0.486D-03-0.160D-01-0.371D-01-0.667D-01 0.394D+00
 Coeff:      0.726D+00
 Gap=     0.327 Goal=   None    Shift=    0.000
 Gap=     0.338 Goal=   None    Shift=    0.000
 RMSDP=3.32D-06 MaxDP=1.66D-04 DE=-7.65D-06 OVMax= 3.20D-04

 Initial convergence to 1.0D-05 achieved.  Increase integral accuracy.
 Cycle   8  Pass 1  IDiag  1:
 E= -154.349500471562     Delta-E=        0.000022360488 Rises=F Damp=F
 DIIS: error= 3.61D-05 at cycle   1 NSaved=   1.
 NSaved= 1 IEnMin= 1 EnMin= -154.349500471562     IErMin= 1 ErrMin= 3.61D-05
 ErrMax= 3.61D-05  0.00D+00 EMaxC= 1.00D-01 BMatC= 1.29D-06 BMatP= 1.29D-06
 IDIUse=1 WtCom= 1.00D+00 WtEn= 0.00D+00
 Coeff-Com:  0.100D+01
 Coeff:      0.100D+01
 Gap=     0.327 Goal=   None    Shift=    0.000
 Gap=     0.338 Goal=   None    Shift=    0.000
 RMSDP=3.32D-06 MaxDP=1.66D-04 DE= 2.24D-05 OVMax= 1.55D-04

 Cycle   9  Pass 1  IDiag  1:
 E= -154.349500697851     Delta-E=       -0.000000226288 Rises=F Damp=F
 DIIS: error= 1.22D-05 at cycle   2 NSaved=   2.
 NSaved= 2 IEnMin= 2 EnMin= -154.349500697851     IErMin= 2 ErrMin= 1.22D-05
 ErrMax= 1.22D-05  0.00D+00 EMaxC= 1.00D-01 BMatC= 8.69D-08 BMatP= 1.29D-06
 IDIUse=1 WtCom= 1.00D+00 WtEn= 0.00D+00
 Coeff-Com:  0.281D-01 0.972D+00
 Coeff:      0.281D-01 0.972D+00
 Gap=     0.327 Goal=   None    Shift=    0.000
 Gap=     0.338 Goal=   None    Shift=    0.000
 RMSDP=1.01D-06 MaxDP=2.64D-05 DE=-2.26D-07 OVMax= 6.51D-05

 Cycle  10  Pass 1  IDiag  1:
 E= -154.349500715490     Delta-E=       -0.000000017639 Rises=F Damp=F
 DIIS: error= 1.19D-05 at cycle   3 NSaved=   3.
 NSaved= 3 IEnMin= 3 EnMin= -154.349500715490     IErMin= 3 ErrMin= 1.19D-05
 ErrMax= 1.19D-05  0.00D+00 EMaxC= 1.00D-01 BMatC= 5.16D-08 BMatP= 8.69D-08
 IDIUse=1 WtCom= 1.00D+00 WtEn= 0.00D+00
 Coeff-Com: -0.511D-01 0.436D+00 0.616D+00
 Coeff:     -0.511D-01 0.436D+00 0.616D+00
 Gap=     0.327 Goal=   None    Shift=    0.000
 Gap=     0.338 Goal=   None    Shift=    0.000
 RMSDP=4.21D-07 MaxDP=1.42D-05 DE=-1.76D-08 OVMax= 2.63D-05

 Cycle  11  Pass 1  IDiag  1:
 E= -154.349500728042     Delta-E=       -0.000000012553 Rises=F Damp=F
 DIIS: error= 2.87D-06 at cycle   4 NSaved=   4.
 NSaved= 4 IEnMin= 4 EnMin= -154.349500728042     IErMin= 4 ErrMin= 2.87D-06
 ErrMax= 2.87D-06  0.00D+00 EMaxC= 1.00D-01 BMatC= 1.99D-09 BMatP= 5.16D-08
 IDIUse=1 WtCom= 1.00D+00 WtEn= 0.00D+00
 Coeff-Com: -0.208D-02-0.925D-01-0.121D-01 0.111D+01
 Coeff:     -0.208D-02-0.925D-01-0.121D-01 0.111D+01
 Gap=     0.327 Goal=   None    Shift=    0.000
 Gap=     0.338 Goal=   None    Shift=    0.000
 RMSDP=2.47D-07 MaxDP=1.20D-05 DE=-1.26D-08 OVMax= 2.01D-05

 Cycle  12  Pass 1  IDiag  1:
 E= -154.349500729165     Delta-E=       -0.000000001122 Rises=F Damp=F
 DIIS: error= 1.01D-06 at cycle   5 NSaved=   5.
 NSaved= 5 IEnMin= 5 EnMin= -154.349500729165     IErMin= 5 ErrMin= 1.01D-06
 ErrMax= 1.01D-06  0.00D+00 EMaxC= 1.00D-01 BMatC= 8.89D-10 BMatP= 1.99D-09
 IDIUse=1 WtCom= 1.00D+00 WtEn= 0.00D+00
 Coeff-Com:  0.820D-02-0.125D+00-0.117D+00 0.530D+00 0.704D+00
 Coeff:      0.820D-02-0.125D+00-0.117D+00 0.530D+00 0.704D+00
 Gap=     0.327 Goal=   None    Shift=    0.000
 Gap=     0.338 Goal=   None    Shift=    0.000
 RMSDP=1.09D-07 MaxDP=5.36D-06 DE=-1.12D-09 OVMax= 8.06D-06

 Cycle  13  Pass 1  IDiag  1:
 E= -154.349500729425     Delta-E=       -0.000000000260 Rises=F Damp=F
 DIIS: error= 2.43D-07 at cycle   6 NSaved=   6.
 NSaved= 6 IEnMin= 6 EnMin= -154.349500729425     IErMin= 6 ErrMin= 2.43D-07
 ErrMax= 2.43D-07  0.00D+00 EMaxC= 1.00D-01 BMatC= 6.16D-11 BMatP= 8.89D-10
 IDIUse=1 WtCom= 1.00D+00 WtEn= 0.00D+00
 Coeff-Com:  0.256D-02-0.197D-01-0.289D-01-0.232D-01 0.191D+00 0.878D+00
 Coeff:      0.256D-02-0.197D-01-0.289D-01-0.232D-01 0.191D+00 0.878D+00
 Gap=     0.327 Goal=   None    Shift=    0.000
 Gap=     0.338 Goal=   None    Shift=    0.000
 RMSDP=4.04D-08 MaxDP=2.27D-06 DE=-2.60D-10 OVMax= 3.08D-06

 Cycle  14  Pass 1  IDiag  1:
 E= -154.349500729450     Delta-E=       -0.000000000025 Rises=F Damp=F
 DIIS: error= 9.05D-08 at cycle   7 NSaved=   7.
 NSaved= 7 IEnMin= 7 EnMin= -154.349500729450     IErMin= 7 ErrMin= 9.05D-08
 ErrMax= 9.05D-08  0.00D+00 EMaxC= 1.00D-01 BMatC= 3.64D-12 BMatP= 6.16D-11
 IDIUse=1 WtCom= 1.00D+00 WtEn= 0.00D+00
 Coeff-Com: -0.699D-03 0.135D-01 0.106D-01-0.661D-01-0.717D-01 0.859D-01
 Coeff-Com:  0.103D+01
 Coeff:     -0.699D-03 0.135D-01 0.106D-01-0.661D-01-0.717D-01 0.859D-01
 Coeff:      0.103D+01
 Gap=     0.327 Goal=   None    Shift=    0.000
 Gap=     0.338 Goal=   None    Shift=    0.000
 RMSDP=1.33D-08 MaxDP=7.12D-07 DE=-2.49D-11 OVMax= 1.02D-06

 Cycle  15  Pass 1  IDiag  1:
 E= -154.349500729453     Delta-E=       -0.000000000003 Rises=F Damp=F
 DIIS: error= 2.48D-08 at cycle   8 NSaved=   8.
 NSaved= 8 IEnMin= 8 EnMin= -154.349500729453     IErMin= 8 ErrMin= 2.48D-08
 ErrMax= 2.48D-08  0.00D+00 EMaxC= 1.00D-01 BMatC= 1.68D-13 BMatP= 3.64D-12
 IDIUse=1 WtCom= 1.00D+00 WtEn= 0.00D+00
 Coeff-Com: -0.171D-03 0.210D-02 0.203D-02-0.454D-02-0.137D-01-0.319D-01
 Coeff-Com:  0.890D-01 0.957D+00
 Coeff:     -0.171D-03 0.210D-02 0.203D-02-0.454D-02-0.137D-01-0.319D-01
 Coeff:      0.890D-01 0.957D+00
 Gap=     0.327 Goal=   None    Shift=    0.000
 Gap=     0.338 Goal=   None    Shift=    0.000
 RMSDP=2.17D-09 MaxDP=7.23D-08 DE=-3.13D-12 OVMax= 2.83D-07

 SCF Done:  E(UM062X) =  -154.349500729     A.U. after   15 cycles
            NFock= 15  Conv=0.22D-08     -V/T= 2.0063
 <Sx>= 0.0000 <Sy>= 0.0000 <Sz>= 0.5000 <S**2>= 0.7553 S= 0.5026
 <L.S>= 0.000000000000E+00
 KE= 1.533763110530D+02 PE=-5.095651869924D+02 EE= 1.274970358976D+02
 Annihilation of the first spin contaminant:
 S**2 before annihilation     0.7553,   after     0.7500
 Leave Link  502 at Wed May 22 18:33:54 2019, MaxMem=   671088640 cpu:             224.7 elap:              14.3
 (Enter /shared/centos7/gaussian/g16/l801.exe)
 DoSCS=F DFT=T ScalE2(SS,OS)=  1.000000  1.000000
 Range of M.O.s used for correlation:     1   160
 NBasis=   160 NAE=    13 NBE=    12 NFC=     0 NFV=     0
 NROrb=    160 NOA=    13 NOB=    12 NVA=   147 NVB=   148
 Leave Link  801 at Wed May 22 18:33:54 2019, MaxMem=   671088640 cpu:               7.5 elap:               0.4
 (Enter /shared/centos7/gaussian/g16/l1101.exe)
 Using compressed storage, NAtomX=     8.
 Will process      9 centers per pass.
 Leave Link 1101 at Wed May 22 18:33:55 2019, MaxMem=   671088640 cpu:               4.9 elap:               0.3
 (Enter /shared/centos7/gaussian/g16/l1102.exe)
 Symmetrizing basis deriv contribution to polar:
 IMax=3 JMax=2 DiffMx= 0.00D+00
 Leave Link 1102 at Wed May 22 18:33:55 2019, MaxMem=   671088640 cpu:               0.5 elap:               0.0
 (Enter /shared/centos7/gaussian/g16/l1110.exe)
 Forming Gx(P) for the SCF density, NAtomX=     8.
 Integral derivatives from FoFJK, PRISM(SPDF).
 Do as many integral derivatives as possible in FoFJK.
 G2DrvN: MDV=     671087928.
 G2DrvN: will do     9 centers at a time, making    1 passes.
 Calling FoFCou, ICntrl=  3107 FMM=F I1Cent=   0 AccDes= 0.00D+00.
 FoFJK:  IHMeth= 1 ICntrl=    3107 DoSepK=F KAlg= 0 I1Cent=           0 FoldK=F
 IRaf=         0 NMat=       1 IRICut=       1 DoRegI=T DoRafI=F ISym2E= 0 IDoP0=0 IntGTp=1.
 FoFCou: FMM=F IPFlag=           0 FMFlag=      100000 FMFlg1=           0
         NFxFlg=           0 DoJE=F BraDBF=F KetDBF=F FulRan=T
         wScrn=  0.000000 ICntrl=      3107 IOpCl=  1 I1Cent=           0 NGrid=           0
         NMat0=    1 NMatS0=      1 NMatT0=    0 NMatD0=    1 NMtDS0=    0 NMtDT0=    0
 Symmetry not used in FoFCou.
 End of G2Drv F.D. properties file   721 does not exist.
 End of G2Drv F.D. properties file   722 does not exist.
 End of G2Drv F.D. properties file   788 does not exist.
 Leave Link 1110 at Wed May 22 18:34:18 2019, MaxMem=   671088640 cpu:             463.5 elap:              23.2
 (Enter /shared/centos7/gaussian/g16/l1002.exe)
 Minotr:  UHF open shell wavefunction.
          IDoAtm=11111111
          Direct CPHF calculation.
          Differentiating once with respect to nuclear coordinates.
          Requested convergence is 1.0D-08 RMS, and 1.0D-07 maximum.
          Secondary convergence is 1.0D-12 RMS, and 1.0D-12 maximum.
          NewPWx=T KeepS1=F KeepF1=F KeepIn=T MapXYZ=F SortEE=F KeepMc=T.
         2371 words used for storage of precomputed grid.
 Keep R1 and R2 ints in memory in canonical form, NReq=186024337.
 FoFCou: FMM=F IPFlag=           0 FMFlag=           0 FMFlg1=           0
         NFxFlg=           0 DoJE=F BraDBF=F KetDBF=F FulRan=T
         wScrn=  0.000000 ICntrl=       600 IOpCl=  0 I1Cent=           0 NGrid=           0
         NMat0=    1 NMatS0=  12880 NMatT0=    0 NMatD0=    1 NMtDS0=    0 NMtDT0=    0
 Symmetry not used in FoFCou.
 Two-electron integral symmetry not used.
          MDV=     671088640 using IRadAn=       1.
          Solving linear equations simultaneously, MaxMat=       0.
          There are    27 degrees of freedom in the 1st order CPHF.  IDoFFX=6 NUNeed=     0.
     21 vectors produced by pass  0 Test12= 1.37D-14 3.70D-09 XBig12= 1.22D-01 1.22D-01.
 AX will form    21 AO Fock derivatives at one time.
     21 vectors produced by pass  1 Test12= 1.37D-14 3.70D-09 XBig12= 1.21D-02 1.80D-02.
     21 vectors produced by pass  2 Test12= 1.37D-14 3.70D-09 XBig12= 3.97D-04 4.88D-03.
     21 vectors produced by pass  3 Test12= 1.37D-14 3.70D-09 XBig12= 4.29D-06 5.91D-04.
     21 vectors produced by pass  4 Test12= 1.37D-14 3.70D-09 XBig12= 6.40D-08 4.42D-05.
     21 vectors produced by pass  5 Test12= 1.37D-14 3.70D-09 XBig12= 6.26D-10 4.53D-06.
     21 vectors produced by pass  6 Test12= 1.37D-14 3.70D-09 XBig12= 5.88D-12 4.09D-07.
      9 vectors produced by pass  7 Test12= 1.37D-14 3.70D-09 XBig12= 5.75D-14 3.54D-08.
 InvSVY:  IOpt=1 It=  1 EMax= 1.44D-15
 Solved reduced A of dimension   156 with    21 vectors.
 End of Minotr F.D. properties file   721 does not exist.
 End of Minotr F.D. properties file   722 does not exist.
 End of Minotr F.D. properties file   788 does not exist.
 Leave Link 1002 at Wed May 22 18:34:53 2019, MaxMem=   671088640 cpu:             711.0 elap:              35.6
 (Enter /shared/centos7/gaussian/g16/l601.exe)
 Copying SCF densities to generalized density rwf, IOpCl= 1 IROHF=0.

 **********************************************************************

            Population analysis using the SCF density.

 **********************************************************************

 Orbital symmetries:
 Alpha Orbitals:
       Occupied  (A) (A) (A) (A) (A) (A) (A) (A) (A) (A) (A) (A)
                 (A)
       Virtual   (A) (A) (A) (A) (A) (A) (A) (A) (A) (A) (A) (A)
                 (A) (A) (A) (A) (A) (A) (A) (A) (A) (A) (A) (A)
                 (A) (A) (A) (A) (A) (A) (A) (A) (A) (A) (A) (A)
                 (A) (A) (A) (A) (A) (A) (A) (A) (A) (A) (A) (A)
                 (A) (A) (A) (A) (A) (A) (A) (A) (A) (A) (A) (A)
                 (A) (A) (A) (A) (A) (A) (A) (A) (A) (A) (A) (A)
                 (A) (A) (A) (A) (A) (A) (A) (A) (A) (A) (A) (A)
                 (A) (A) (A) (A) (A) (A) (A) (A) (A) (A) (A) (A)
                 (A) (A) (A) (A) (A) (A) (A) (A) (A) (A) (A) (A)
                 (A) (A) (A) (A) (A) (A) (A) (A) (A) (A) (A) (A)
                 (A) (A) (A) (A) (A) (A) (A) (A) (A) (A) (A) (A)
                 (A) (A) (A) (A) (A) (A) (A) (A) (A) (A) (A) (A)
                 (A) (A) (A)
 Beta  Orbitals:
       Occupied  (A) (A) (A) (A) (A) (A) (A) (A) (A) (A) (A) (A)
       Virtual   (A) (A) (A) (A) (A) (A) (A) (A) (A) (A) (A) (A)
                 (A) (A) (A) (A) (A) (A) (A) (A) (A) (A) (A) (A)
                 (A) (A) (A) (A) (A) (A) (A) (A) (A) (A) (A) (A)
                 (A) (A) (A) (A) (A) (A) (A) (A) (A) (A) (A) (A)
                 (A) (A) (A) (A) (A) (A) (A) (A) (A) (A) (A) (A)
                 (A) (A) (A) (A) (A) (A) (A) (A) (A) (A) (A) (A)
                 (A) (A) (A) (A) (A) (A) (A) (A) (A) (A) (A) (A)
                 (A) (A) (A) (A) (A) (A) (A) (A) (A) (A) (A) (A)
                 (A) (A) (A) (A) (A) (A) (A) (A) (A) (A) (A) (A)
                 (A) (A) (A) (A) (A) (A) (A) (A) (A) (A) (A) (A)
                 (A) (A) (A) (A) (A) (A) (A) (A) (A) (A) (A) (A)
                 (A) (A) (A) (A) (A) (A) (A) (A) (A) (A) (A) (A)
                 (A) (A) (A) (A)
 The electronic state is 2-A.
 Alpha  occ. eigenvalues --  -19.62366 -10.59343 -10.54834  -1.14680  -0.83736
 Alpha  occ. eigenvalues --   -0.69163  -0.59827  -0.53318  -0.48990  -0.46603
 Alpha  occ. eigenvalues --   -0.41058  -0.36326  -0.26806
 Alpha virt. eigenvalues --    0.05941   0.10271   0.12439   0.13946   0.15625
 Alpha virt. eigenvalues --    0.20619   0.23116   0.31076   0.36252   0.37669
 Alpha virt. eigenvalues --    0.39145   0.40366   0.42797   0.44514   0.46722
 Alpha virt. eigenvalues --    0.49522   0.51111   0.51980   0.53549   0.56578
 Alpha virt. eigenvalues --    0.58137   0.61920   0.70225   0.72035   0.74459
 Alpha virt. eigenvalues --    0.79110   0.86659   0.92472   0.95037   0.97521
 Alpha virt. eigenvalues --    1.00880   1.02192   1.05515   1.08368   1.12345
 Alpha virt. eigenvalues --    1.12814   1.18080   1.20503   1.24825   1.27665
 Alpha virt. eigenvalues --    1.28989   1.33995   1.35435   1.36851   1.41557
 Alpha virt. eigenvalues --    1.42721   1.51944   1.57287   1.63139   1.85477
 Alpha virt. eigenvalues --    1.96575   2.02183   2.09182   2.11353   2.18024
 Alpha virt. eigenvalues --    2.20097   2.23243   2.31101   2.32625   2.39196
 Alpha virt. eigenvalues --    2.51432   2.55883   2.59930   2.63118   2.70827
 Alpha virt. eigenvalues --    2.76381   2.82040   2.83922   2.88901   2.90435
 Alpha virt. eigenvalues --    2.92665   2.94725   2.95511   2.99096   3.01928
 Alpha virt. eigenvalues --    3.03890   3.08427   3.09566   3.14006   3.15689
 Alpha virt. eigenvalues --    3.20325   3.29271   3.29605   3.33056   3.36225
 Alpha virt. eigenvalues --    3.41726   3.43782   3.44894   3.48909   3.53060
 Alpha virt. eigenvalues --    3.55508   3.61391   3.62950   3.68856   3.72622
 Alpha virt. eigenvalues --    3.76998   3.79733   3.81312   3.86002   3.86519
 Alpha virt. eigenvalues --    3.91390   3.91503   3.96622   3.98400   4.01327
 Alpha virt. eigenvalues --    4.04066   4.07524   4.11903   4.13939   4.24433
 Alpha virt. eigenvalues --    4.31652   4.32803   4.42455   4.47435   4.60264
 Alpha virt. eigenvalues --    4.62846   4.69673   4.70945   4.74228   4.78074
 Alpha virt. eigenvalues --    4.86235   4.93632   4.97955   5.00517   5.13107
 Alpha virt. eigenvalues --    5.16292   5.22822   5.31510   5.35365   5.41161
 Alpha virt. eigenvalues --    5.56065   5.63223   5.78659   5.81053   5.95996
 Alpha virt. eigenvalues --    6.10837   6.41016   6.57385   6.63095   6.73548
 Alpha virt. eigenvalues --    6.86715   6.93488   7.10230   7.32319  11.03938
 Alpha virt. eigenvalues --   11.61759  12.45320
  Beta  occ. eigenvalues --  -19.62367 -10.59402 -10.54048  -1.14653  -0.81561
  Beta  occ. eigenvalues --   -0.66640  -0.59504  -0.52253  -0.48348  -0.45521
  Beta  occ. eigenvalues --   -0.40407  -0.35360
  Beta virt. eigenvalues --   -0.01531   0.05641   0.09987   0.12271   0.13238
  Beta virt. eigenvalues --    0.15591   0.20289   0.23211   0.29995   0.35882
  Beta virt. eigenvalues --    0.36714   0.39423   0.39908   0.42806   0.43960
  Beta virt. eigenvalues --    0.46546   0.49499   0.51666   0.52440   0.53674
  Beta virt. eigenvalues --    0.57561   0.58410   0.62439   0.69908   0.71729
  Beta virt. eigenvalues --    0.74641   0.78828   0.86237   0.91947   0.94631
  Beta virt. eigenvalues --    0.97698   0.99711   1.02179   1.05410   1.08035
  Beta virt. eigenvalues --    1.12530   1.13130   1.18433   1.20375   1.24842
  Beta virt. eigenvalues --    1.27997   1.29242   1.33625   1.35594   1.37600
  Beta virt. eigenvalues --    1.41600   1.42715   1.53750   1.57173   1.64015
  Beta virt. eigenvalues --    1.86026   1.97047   2.02387   2.09525   2.11594
  Beta virt. eigenvalues --    2.19246   2.24471   2.25088   2.31647   2.33564
  Beta virt. eigenvalues --    2.40071   2.53059   2.57087   2.63207   2.65751
  Beta virt. eigenvalues --    2.73389   2.79146   2.83362   2.86652   2.90803
  Beta virt. eigenvalues --    2.92955   2.94927   2.96183   2.96524   3.03461
  Beta virt. eigenvalues --    3.04959   3.06903   3.11226   3.12342   3.15155
  Beta virt. eigenvalues --    3.16710   3.21669   3.30261   3.30387   3.34296
  Beta virt. eigenvalues --    3.37257   3.42061   3.44824   3.45273   3.49727
  Beta virt. eigenvalues --    3.53720   3.55744   3.62519   3.63697   3.69341
  Beta virt. eigenvalues --    3.73307   3.77668   3.80997   3.81663   3.86456
  Beta virt. eigenvalues --    3.87612   3.92079   3.92246   3.97374   3.98905
  Beta virt. eigenvalues --    4.02065   4.05506   4.07717   4.13594   4.14678
  Beta virt. eigenvalues --    4.25904   4.32777   4.33321   4.43141   4.49857
  Beta virt. eigenvalues --    4.60803   4.65085   4.70651   4.73177   4.76246
  Beta virt. eigenvalues --    4.80563   4.88578   4.96166   5.00437   5.02499
  Beta virt. eigenvalues --    5.15342   5.19437   5.24116   5.34281   5.39790
  Beta virt. eigenvalues --    5.43009   5.57347   5.69267   5.79889   5.81417
  Beta virt. eigenvalues --    5.96462   6.10975   6.41048   6.57495   6.63108
  Beta virt. eigenvalues --    6.73568   6.86726   6.93429   7.10270   7.32343
  Beta virt. eigenvalues --   11.04435  11.62325  12.46017
          Condensed to atoms (all electrons):
               1          2          3          4          5          6
     1  O    7.866413   0.340275  -0.046527  -0.052848  -0.056666   0.004948
     2  C    0.340275   4.635428   0.298657   0.405133   0.398639  -0.035732
     3  C   -0.046527   0.298657   5.453808  -0.067159  -0.041915   0.379885
     4  H   -0.052848   0.405133  -0.067159   0.730077  -0.090377   0.002651
     5  H   -0.056666   0.398639  -0.041915  -0.090377   0.725136   0.005624
     6  H    0.004948  -0.035732   0.379885   0.002651   0.005624   0.504287
     7  H    0.002510  -0.039446   0.383430   0.000441   0.000930  -0.032400
     8  H    0.327745  -0.036650   0.009289  -0.003888  -0.011459  -0.000536
               7          8
     1  O    0.002510   0.327745
     2  C   -0.039446  -0.036650
     3  C    0.383430   0.009289
     4  H    0.000441  -0.003888
     5  H    0.000930  -0.011459
     6  H   -0.032400  -0.000536
     7  H    0.536249  -0.000580
     8  H   -0.000580   0.460649
          Atomic-Atomic Spin Densities.
               1          2          3          4          5          6
     1  O    0.002833   0.000577   0.002508   0.001746  -0.002645   0.000089
     2  C    0.000577  -0.065402  -0.038819   0.013108   0.014958   0.004292
     3  C    0.002508  -0.038819   1.154792  -0.024318  -0.027679  -0.006219
     4  H    0.001746   0.013108  -0.024318   0.074845  -0.021182  -0.000719
     5  H   -0.002645   0.014958  -0.027679  -0.021182   0.072654   0.000155
     6  H    0.000089   0.004292  -0.006219  -0.000719   0.000155  -0.036972
     7  H   -0.000169   0.002504  -0.003204  -0.001483   0.001238   0.003501
     8  H   -0.001371   0.000506   0.000216  -0.001173   0.002200   0.000052
               7          8
     1  O   -0.000169  -0.001371
     2  C    0.002504   0.000506
     3  C   -0.003204   0.000216
     4  H   -0.001483  -0.001173
     5  H    0.001238   0.002200
     6  H    0.003501   0.000052
     7  H   -0.039754   0.000039
     8  H    0.000039  -0.000411
 Mulliken charges and spin densities:
               1          2
     1  O   -0.385850   0.003569
     2  C    0.033695  -0.068276
     3  C   -0.369468   1.057276
     4  H    0.075971   0.040823
     5  H    0.070087   0.039698
     6  H    0.171273  -0.035820
     7  H    0.148865  -0.037329
     8  H    0.255429   0.000058
 Sum of Mulliken charges =  -0.00000   1.00000
 Mulliken charges and spin densities with hydrogens summed into heavy atoms:
               1          2
     1  O   -0.130421   0.003627
     2  C    0.179752   0.012245
     3  C   -0.049331   0.984128
 APT charges:
               1
     1  O   -0.650797
     2  C   -0.496268
     3  C   -0.780885
     4  H    0.284974
     5  H    0.281586
     6  H    0.353612
     7  H    0.430729
     8  H    0.577049
 Sum of APT charges =  -0.00000
 APT charges with hydrogens summed into heavy atoms:
               1
     1  O   -0.073747
     2  C    0.070291
     3  C    0.003456
 Electronic spatial extent (au):  <R**2>=            183.9512
 Charge=             -0.0000 electrons
 Dipole moment (field-independent basis, Debye):
    X=              0.3779    Y=              1.6509    Z=             -0.0367  Tot=              1.6940
 Quadrupole moment (field-independent basis, Debye-Ang):
   XX=            -16.5350   YY=            -19.4030   ZZ=            -20.6003
   XY=              2.0372   XZ=             -1.5082   YZ=             -0.0910
 Traceless Quadrupole moment (field-independent basis, Debye-Ang):
   XX=              2.3111   YY=             -0.5569   ZZ=             -1.7542
   XY=              2.0372   XZ=             -1.5082   YZ=             -0.0910
 Octapole moment (field-independent basis, Debye-Ang**2):
  XXX=             14.7584  YYY=             -1.6549  ZZZ=              0.6170  XYY=              0.7090
  XXY=              3.0456  XXZ=              0.0770  XZZ=              3.3160  YZZ=              0.8289
  YYZ=              0.2228  XYZ=             -0.1865
 Hexadecapole moment (field-independent basis, Debye-Ang**3):
 XXXX=           -132.3302 YYYY=            -53.6813 ZZZZ=            -29.1067 XXXY=              0.1976
 XXXZ=             -6.9243 YYYX=              0.7604 YYYZ=             -0.4886 ZZZX=             -1.4299
 ZZZY=             -0.1903 XXYY=            -35.2329 XXZZ=            -33.8802 YYZZ=            -13.7249
 XXYZ=              0.0214 YYXZ=             -0.6548 ZZXY=             -0.5936
 N-N= 7.434233931231D+01 E-N=-5.095651851420D+02  KE= 1.533763110530D+02
  Exact polarizability:   0.000   0.000   0.000   0.000   0.000   0.000
 Approx polarizability:  35.166   1.189  33.004  -1.059  -0.158  27.324
                          Isotropic Fermi Contact Couplings
        Atom                 a.u.       MegaHertz       Gauss      10(-4) cm-1
     1  O(17)              0.00125      -0.75817      -0.27053      -0.25290
     2  C(13)             -0.03061     -34.40784     -12.27757     -11.47722
     3  C(13)              0.24265     272.78551      97.33665      90.99145
     4  H(1)               0.01978      88.41640      31.54917      29.49254
     5  H(1)               0.02072      92.63362      33.05398      30.89925
     6  H(1)              -0.01422     -63.58065     -22.68716     -21.20822
     7  H(1)              -0.01299     -58.06392     -20.71865     -19.36804
     8  H(1)              -0.00038      -1.67665      -0.59827      -0.55927
 --------------------------------------------------------
       Center         ----  Spin Dipole Couplings  ----
                      3XX-RR        3YY-RR        3ZZ-RR
 --------------------------------------------------------
     1   Atom        0.015558     -0.006535     -0.009023
     2   Atom        0.002193     -0.012950      0.010757
     3   Atom       -0.510453     -0.534966      1.045419
     4   Atom        0.001477      0.001508     -0.002985
     5   Atom        0.003978      0.004044     -0.008022
     6   Atom       -0.068738      0.074359     -0.005621
     7   Atom        0.030786     -0.032370      0.001584
     8   Atom        0.007130     -0.003485     -0.003645
 --------------------------------------------------------
                        XY            XZ            YZ
 --------------------------------------------------------
     1   Atom       -0.008295      0.002592     -0.007208
     2   Atom        0.005601      0.008452      0.005480
     3   Atom       -0.013292      0.222882     -0.073343
     4   Atom        0.009836      0.006267      0.009058
     5   Atom        0.013577     -0.005208     -0.007228
     6   Atom        0.000881      0.008313     -0.012966
     7   Atom       -0.061095     -0.021627      0.014265
     8   Atom        0.000065      0.000452     -0.000072
 --------------------------------------------------------


 ---------------------------------------------------------------------------------
              Anisotropic Spin Dipole Couplings in Principal Axis System
 ---------------------------------------------------------------------------------

       Atom             a.u.   MegaHertz   Gauss  10(-4) cm-1        Axes

              Baa    -0.0155     1.123     0.401     0.374  0.1242  0.6884  0.7147
     1 O(17)  Bbb    -0.0036     0.264     0.094     0.088 -0.3668 -0.6374  0.6777
              Bcc     0.0192    -1.386    -0.495    -0.462  0.9220 -0.3463  0.1733
 
              Baa    -0.0151    -2.028    -0.723    -0.676 -0.2516  0.9602 -0.1212
     2 C(13)  Bbb    -0.0027    -0.366    -0.131    -0.122  0.8120  0.1413 -0.5664
              Bcc     0.0178     2.394     0.854     0.798  0.5267  0.2409  0.8152
 
              Baa    -0.5435   -72.929   -26.023   -24.327  0.8587  0.5032 -0.0972
     3 C(13)  Bbb    -0.5367   -72.017   -25.697   -24.022 -0.4933  0.8630  0.1095
              Bcc     1.0802   144.946    51.720    48.349  0.1390 -0.0461  0.9892
 
              Baa    -0.0103    -5.517    -1.969    -1.840 -0.2304  0.7045 -0.6713
     4 H(1)   Bbb    -0.0069    -3.657    -1.305    -1.220  0.7699 -0.2899 -0.5685
              Bcc     0.0172     9.174     3.273     3.060  0.5951  0.6478  0.4756
 
              Baa    -0.0116    -6.210    -2.216    -2.071 -0.2177  0.5577  0.8010
     5 H(1)   Bbb    -0.0087    -4.634    -1.653    -1.546  0.7150 -0.4675  0.5198
              Bcc     0.0203    10.844     3.869     3.617  0.6643  0.6859 -0.2970
 
              Baa    -0.0699   -37.274   -13.300   -12.433  0.9911 -0.0179 -0.1319
     6 H(1)   Bbb    -0.0065    -3.495    -1.247    -1.166  0.1331  0.1554  0.9788
              Bcc     0.0764    40.769    14.547    13.599 -0.0030  0.9877 -0.1564
 
              Baa    -0.0696   -37.124   -13.247   -12.383  0.5177  0.8555 -0.0141
     7 H(1)   Bbb    -0.0073    -3.898    -1.391    -1.300  0.2851 -0.1569  0.9455
              Bcc     0.0769    41.022    14.638    13.683  0.8067 -0.4935 -0.3252
 
              Baa    -0.0037    -1.969    -0.703    -0.657 -0.0412  0.3420  0.9388
     8 H(1)   Bbb    -0.0035    -1.845    -0.658    -0.616  0.0089  0.9397 -0.3419
              Bcc     0.0071     3.815     1.361     1.272  0.9991  0.0058  0.0418
 

 ---------------------------------------------------------------------------------

 No NMR shielding tensors so no spin-rotation constants.
 Leave Link  601 at Wed May 22 18:34:54 2019, MaxMem=   671088640 cpu:               6.8 elap:               0.4
 (Enter /shared/centos7/gaussian/g16/l701.exe)
 SCFChk:  SCF convergence  2.17D-09 required  1.00D-08
 ... and contract with generalized density number  0.
 Compute integral second derivatives.
 Entering OneElI...
 Calculate overlap and kinetic energy integrals
    NBasis = 180  MinDer = 2  MaxDer = 2
 Requested accuracy = 0.1000D-12
 PrmmSu-InSpLW:  IPartL=    0 NPrtUS=   20 NPrtUL=    1 DoSpLW=F IThBeg=    0 IThEnd=   19 NThAct=   20.
 PrsmSu:  NPrtUS=  20 ThrOK=T IAlg=1 NPAlg=1 LenDen=           0 ISkipM=0 DoSpLW=F IThBeg=    0 IThEnd=   19.
 Prism:   IPart=     0 DynPar=F LinDyn=F Incr=           1.
 PRISM was handed    33498324 working-precision words and  1830 shell-pairs
 PRISM was handed    33498324 working-precision words and  1830 shell-pairs
 PRISM was handed    33498324 working-precision words and  1830 shell-pairs
 PRISM was handed    33498324 working-precision words and  1830 shell-pairs
 PRISM was handed    33498324 working-precision words and  1830 shell-pairs
 PRISM was handed    33498324 working-precision words and  1830 shell-pairs
 PRISM was handed    33498324 working-precision words and  1830 shell-pairs
 PRISM was handed    33498324 working-precision words and  1830 shell-pairs
 PRISM was handed    33498324 working-precision words and  1830 shell-pairs
 PRISM was handed    33498324 working-precision words and  1830 shell-pairs
 PRISM was handed    33498324 working-precision words and  1830 shell-pairs
 PRISM was handed    33498324 working-precision words and  1830 shell-pairs
 PRISM was handed    33498324 working-precision words and  1830 shell-pairs
 PRISM was handed    33498324 working-precision words and  1830 shell-pairs
 PRISM was handed    33498324 working-precision words and  1830 shell-pairs
 PRISM was handed    33498324 working-precision words and  1830 shell-pairs
 PRISM was handed    33498324 working-precision words and  1830 shell-pairs
 PRISM was handed    33498324 working-precision words and  1830 shell-pairs
 PRISM was handed    33498324 working-precision words and  1830 shell-pairs
 PRISM was handed    33498324 working-precision words and  1830 shell-pairs
 IPart=  8 NShTot=          91 NBatch=          24 AvBLen=         3.8
 IPart=  7 NShTot=          94 NBatch=          24 AvBLen=         3.9
 IPart=  0 NShTot=         131 NBatch=          59 AvBLen=         2.2
 IPart= 11 NShTot=          84 NBatch=          21 AvBLen=         4.0
 IPart= 12 NShTot=          84 NBatch=          21 AvBLen=         4.0
 IPart= 13 NShTot=          80 NBatch=          21 AvBLen=         3.8
 IPart=  6 NShTot=          95 NBatch=          25 AvBLen=         3.8
 IPart=  1 NShTot=         120 NBatch=          48 AvBLen=         2.5
 IPart=  9 NShTot=          87 NBatch=          21 AvBLen=         4.1
 IPart= 14 NShTot=          79 NBatch=          21 AvBLen=         3.8
 IPart= 10 NShTot=          85 NBatch=          21 AvBLen=         4.0
 IPart=  4 NShTot=         103 NBatch=          31 AvBLen=         3.3
 IPart=  2 NShTot=         117 NBatch=          45 AvBLen=         2.6
 IPart=  3 NShTot=         109 NBatch=          37 AvBLen=         2.9
 IPart=  5 NShTot=         101 NBatch=          29 AvBLen=         3.5
 IPart= 15 NShTot=          78 NBatch=          20 AvBLen=         3.9
 IPart= 19 NShTot=          73 NBatch=          20 AvBLen=         3.7
 IPart= 16 NShTot=          73 NBatch=          20 AvBLen=         3.7
 IPart= 18 NShTot=          73 NBatch=          20 AvBLen=         3.7
 IPart= 17 NShTot=          73 NBatch=          20 AvBLen=         3.7
 PrSmSu:  NxtVal=             21.
 Entering OneElI...
 Calculate potential energy integrals
    NBasis = 180  MinDer = 2  MaxDer = 2
 Requested accuracy = 0.1000D-12
 PrmmSu-InSpLW:  IPartL=    0 NPrtUS=   20 NPrtUL=    1 DoSpLW=F IThBeg=    0 IThEnd=   19 NThAct=   20.
 PrsmSu:  NPrtUS=  20 ThrOK=T IAlg=1 NPAlg=1 LenDen=           0 ISkipM=0 DoSpLW=F IThBeg=    0 IThEnd=   19.
 Prism:   IPart=     0 DynPar=F LinDyn=F Incr=           7.
 PRISM was handed    33503678 working-precision words and  1808 shell-pairs
 PRISM was handed    33503678 working-precision words and  1808 shell-pairs
 PRISM was handed    33503678 working-precision words and  1808 shell-pairs
 PRISM was handed    33503678 working-precision words and  1808 shell-pairs
 PRISM was handed    33503678 working-precision words and  1808 shell-pairs
 PRISM was handed    33503678 working-precision words and  1808 shell-pairs
 PRISM was handed    33503678 working-precision words and  1808 shell-pairs
 PRISM was handed    33503678 working-precision words and  1808 shell-pairs
 PRISM was handed    33503678 working-precision words and  1808 shell-pairs
 PRISM was handed    33503678 working-precision words and  1808 shell-pairs
 PRISM was handed    33503678 working-precision words and  1808 shell-pairs
 PRISM was handed    33503678 working-precision words and  1808 shell-pairs
 PRISM was handed    33503678 working-precision words and  1808 shell-pairs
 PRISM was handed    33503678 working-precision words and  1808 shell-pairs
 PRISM was handed    33503678 working-precision words and  1808 shell-pairs
 PRISM was handed    33503678 working-precision words and  1808 shell-pairs
 PRISM was handed    33503678 working-precision words and  1808 shell-pairs
 PRISM was handed    33503678 working-precision words and  1808 shell-pairs
 PRISM was handed    33503678 working-precision words and  1808 shell-pairs
 PRISM was handed    33503678 working-precision words and  1808 shell-pairs
 IPart= 13 NShTot=         640 NBatch=          80 AvBLen=         8.0
 IPart= 11 NShTot=         648 NBatch=          81 AvBLen=         8.0
 IPart= 12 NShTot=         648 NBatch=          81 AvBLen=         8.0
 IPart=  8 NShTot=         712 NBatch=          89 AvBLen=         8.0
 IPart=  7 NShTot=         728 NBatch=          91 AvBLen=         8.0
 IPart=  6 NShTot=         736 NBatch=          92 AvBLen=         8.0
 IPart= 14 NShTot=         624 NBatch=          78 AvBLen=         8.0
 IPart=  0 NShTot=        1048 NBatch=         131 AvBLen=         8.0
 IPart=  3 NShTot=         840 NBatch=         105 AvBLen=         8.0
 IPart=  4 NShTot=         816 NBatch=         102 AvBLen=         8.0
 IPart=  2 NShTot=         912 NBatch=         114 AvBLen=         8.0
 IPart=  1 NShTot=         952 NBatch=         119 AvBLen=         8.0
 IPart=  9 NShTot=         672 NBatch=          84 AvBLen=         8.0
 IPart=  5 NShTot=         808 NBatch=         101 AvBLen=         8.0
 IPart= 10 NShTot=         648 NBatch=          81 AvBLen=         8.0
 IPart= 16 NShTot=         608 NBatch=          76 AvBLen=         8.0
 IPart= 19 NShTot=         600 NBatch=          75 AvBLen=         8.0
 IPart= 15 NShTot=         616 NBatch=          77 AvBLen=         8.0
 IPart= 18 NShTot=         600 NBatch=          75 AvBLen=         8.0
 IPart= 17 NShTot=         608 NBatch=          76 AvBLen=         8.0
 PrSmSu:  NxtVal=            141.
 Polarizability after L701:
                1             2             3 
      1  0.000000D+00
      2  0.000000D+00  0.000000D+00
      3  0.000000D+00  0.000000D+00  0.000000D+00
 Dipole Derivatives after L701:
                 1             2             3             4             5 
      1  -0.124099D+01 -0.566152D+00  0.241451D+00 -0.686674D-01  0.146090D+00
      2  -0.196170D+00 -0.313561D+00  0.349436D-03  0.107065D+00 -0.759193D+00
      3   0.953057D-01  0.208446D-01 -0.397839D+00 -0.136630D-01  0.150957D-01
                 6             7             8             9            10 
      1  -0.718854D-02 -0.117939D+01 -0.170602D+00  0.439896D+00  0.139072D+00
      2  -0.146345D-01  0.965798D-01 -0.932863D+00  0.533365D-01 -0.262980D-02
      3  -0.660945D+00  0.129509D+00 -0.247644D-01 -0.230402D+00  0.369360D-01
                11            12            13            14            15 
      1  -0.256739D-01  0.248477D-01  0.131284D+00  0.176382D-02 -0.568974D-01
      2   0.327025D+00  0.232450D+00  0.452612D-01  0.350307D+00 -0.230501D+00
      3   0.165083D+00  0.388824D+00 -0.780169D-01 -0.182191D+00  0.363168D+00
                16            17            18            19            20 
      1   0.177632D+00  0.537152D+00 -0.984100D-01  0.934124D+00 -0.412845D+00
      2   0.384411D-01  0.769891D+00 -0.769838D-01 -0.149359D+00  0.223909D+00
      3  -0.719872D-02 -0.411650D-02  0.113313D+00 -0.946699D-01  0.569755D-01
                21            22            23            24 
      1  -0.323524D+00  0.110694D+01  0.490268D+00 -0.220175D+00
      2   0.562185D-01  0.608109D-01  0.334484D+00 -0.202345D-01
      3   0.134154D+00 -0.682022D-01 -0.469263D-01  0.289728D+00
 Hessian after L701:
                1             2             3             4             5 
      1  0.251559D+01
      2  0.176539D+01  0.755411D+01
      3  0.561757D+00  0.564850D+00  0.109309D+02
      4 -0.160211D+01 -0.390359D+01  0.656631D-01  0.833307D+01
      5 -0.379549D+01 -0.346988D+01 -0.174704D+00  0.214094D+01  0.109033D+02
      6  0.402199D-01 -0.168214D+00 -0.672876D+01 -0.141739D+00  0.158295D-01
      7  0.589504D+00  0.138705D+00  0.164428D+00 -0.776710D+00  0.181911D+01
      8  0.952783D-01 -0.360699D+00 -0.178630D-01  0.177732D+01 -0.353346D+01
      9  0.164295D+00 -0.123644D-01 -0.284788D+00  0.259737D+00  0.155438D+00
     10 -0.126353D+00  0.189564D+00 -0.658813D-01 -0.299339D+01 -0.609992D-01
     11  0.190747D+00 -0.382371D-01  0.207741D+00 -0.648510D-01 -0.206972D+01
     12 -0.472065D-01  0.169412D+00  0.362009D+00 -0.791380D-01  0.103506D+01
     13 -0.473259D-01  0.176967D+00  0.273627D-01 -0.294861D+01  0.691585D-01
     14  0.176647D+00 -0.708770D-01 -0.154801D+00  0.636163D-01 -0.193343D+01
     15  0.120169D-01 -0.108516D+00  0.329801D+00 -0.823450D-01 -0.103334D+01
     16  0.134253D+00  0.335256D-01  0.113235D-01  0.691325D-02 -0.782077D-01
     17  0.105888D+00 -0.422423D-01  0.727350D-02 -0.343052D-01 -0.433557D-02
     18 -0.177265D-02 -0.393202D-03 -0.736289D-01 -0.386475D-02 -0.355325D-02
     19  0.985159D-01 -0.513987D-01 -0.144318D-01 -0.428161D-01 -0.843579D-02
     20 -0.432004D-01 -0.196225D-01  0.485342D-02 -0.104868D-01  0.623506D-01
     21 -0.236088D-01  0.852016D-02 -0.322290D-01 -0.157089D-01  0.630072D-02
     22 -0.156207D+01  0.165083D+01 -0.750221D+00  0.236566D-01 -0.860685D-01
     23  0.150474D+01 -0.355255D+01 -0.437350D+00  0.313612D-01  0.451786D-01
     24 -0.705702D+00 -0.453295D+00 -0.450333D+01 -0.260428D-02 -0.102746D-02
                6             7             8             9            10 
      6  0.145752D+02
      7  0.227412D+00  0.393775D+01
      8  0.139887D+00 -0.123187D+01  0.680001D+01
      9 -0.436645D+01  0.160178D+00 -0.103241D+00  0.954949D+01
     10 -0.790192D-01  0.230443D-01 -0.557582D-01 -0.290671D-01  0.285226D+01
     11  0.108658D+01 -0.659362D-01  0.218246D-01 -0.792292D-02 -0.959596D-01
     12 -0.171934D+01 -0.460392D-01 -0.207371D-01  0.985630D-01  0.114700D+00
     13 -0.899704D-01 -0.580754D-02 -0.312600D-01 -0.130602D-01  0.238334D+00
     14 -0.107728D+01 -0.230793D-01 -0.594288D-02 -0.355230D-01 -0.477233D-02
     15 -0.182122D+01 -0.101536D-01 -0.257157D-01  0.750666D-01  0.496995D-01
     16  0.942486D-02 -0.266826D+01  0.145924D+00 -0.251471D-01 -0.293942D-02
     17  0.103008D-01  0.975872D-02 -0.690375D+00 -0.259778D+00  0.159285D-01
     18  0.358031D-01 -0.701154D-02 -0.227587D+00 -0.262224D+01  0.429199D-02
     19  0.174601D-02 -0.126433D+01 -0.731714D+00 -0.511035D+00  0.161304D-01
     20  0.653265D-02 -0.690025D+00 -0.219172D+01  0.264002D+00  0.320733D-02
     21  0.292018D-01 -0.467438D+00  0.256405D+00 -0.240949D+01  0.352451D-02
     22  0.319267D-01  0.164814D+00  0.320831D-01 -0.590154D-02 -0.708738D-02
     23 -0.136314D-01  0.433371D-01 -0.396269D-01 -0.610858D-03  0.879003D-02
     24 -0.442764D-02 -0.213748D-01 -0.114839D-02 -0.401514D-01  0.175163D-02
               11            12            13            14            15 
     11  0.180071D+01
     12 -0.126606D+01  0.172077D+01
     13  0.214974D-02  0.419043D-01  0.277471D+01
     14  0.264673D+00  0.685699D-01 -0.275352D+00  0.170659D+01
     15 -0.335773D-01 -0.458785D+00  0.631424D-01  0.121903D+01  0.186517D+01
     16  0.172518D-01  0.794001D-02 -0.147744D-02  0.301892D-01 -0.140833D-01
     17  0.307066D-01  0.190677D-01  0.293194D-01  0.459804D-01 -0.272446D-01
     18  0.877186D-02 -0.661112D-02 -0.898794D-02 -0.182662D-01 -0.722879D-02
     19  0.184516D-01  0.155714D-01  0.149962D-01  0.142372D-01 -0.147285D-01
     20 -0.611925D-02  0.697232D-03  0.354858D-02 -0.590273D-02 -0.587859D-03
     21  0.259736D-02 -0.577752D-02 -0.109962D-01 -0.729704D-02  0.168883D-02
     22 -0.185336D-02 -0.773201D-02 -0.248110D-01  0.185139D-01 -0.354835D-02
     23 -0.383653D-02 -0.600590D-02  0.254680D-01 -0.109011D-02  0.995291D-02
     24  0.187148D-02  0.917171D-02 -0.939452D-02  0.557261D-02  0.155145D-01
               16            17            18            19            20 
     16  0.249947D+01
     17 -0.271740D+00  0.795714D+00
     18  0.385874D-02  0.278549D+00  0.259956D+01
     19  0.287740D-01  0.133133D+00  0.155666D-01  0.114511D+01
     20  0.120234D+00 -0.141355D+00 -0.364422D-01  0.620362D+00  0.230309D+01
     21  0.778356D-02 -0.255257D-01  0.753660D-01  0.509863D+00 -0.239650D+00
     22  0.326843D-02  0.120173D-01 -0.208051D-02  0.361225D-02 -0.363934D-02
     23  0.282320D-02  0.590680D-02 -0.107898D-02  0.536487D-02 -0.714207D-03
     24 -0.110026D-02 -0.264245D-02 -0.101589D-02 -0.255199D-02  0.594913D-03
               21            22            23            24 
     21  0.234047D+01
     22 -0.341897D-02  0.139862D+01
     23 -0.135049D-02 -0.162189D+01  0.354674D+01
     24  0.771156D-03  0.740976D+00  0.450074D+00  0.452346D+01
 Leave Link  701 at Wed May 22 18:34:54 2019, MaxMem=   671088640 cpu:               5.3 elap:               0.3
 (Enter /shared/centos7/gaussian/g16/l702.exe)
 L702 exits ... SP integral derivatives will be done elsewhere.
 Leave Link  702 at Wed May 22 18:34:54 2019, MaxMem=   671088640 cpu:               0.4 elap:               0.0
 (Enter /shared/centos7/gaussian/g16/l703.exe)
 Integral derivatives from FoFJK, PRISM(SPDF).
 Compute integral second derivatives, UseDBF=F ICtDFT=           0.
 ICntrl=    100147.
 Calling FoFJK, ICntrl=    100147 FMM=F ISym2X=0 I1Cent= 0 IOpClX= 1 NMat=1 NMatS=1 NMatT=0.
 FoFJK:  IHMeth= 1 ICntrl=  100147 DoSepK=F KAlg= 0 I1Cent=           0 FoldK=F
 IRaf=         0 NMat=       1 IRICut=       1 DoRegI=T DoRafI=F ISym2E= 0 IDoP0=0 IntGTp=1.
 FoFCou: FMM=F IPFlag=           0 FMFlag=      100000 FMFlg1=         800
         NFxFlg=           0 DoJE=F BraDBF=F KetDBF=F FulRan=T
         wScrn=  0.000000 ICntrl=    100147 IOpCl=  1 I1Cent=           0 NGrid=           0
         NMat0=    1 NMatS0=      1 NMatT0=    0 NMatD0=    1 NMtDS0=    0 NMtDT0=    0
 Symmetry not used in FoFCou.
 FoFCou:  KetSym=F NOpSet=  1 NOpAb=1 NOp=  1.
 FoFCou:  CnvScl= 1.00D+00 Thresh= 1.00D-08 IAcrcy=      12.
 PrismS was handed   670881827 working-precision words and  1827 shell-pairs
 FoFCou: LinMIO=F DoNuc=F BraDBF=F KetDBF=F HaveP=T PDBF=F HaveZ=T HaveW=F
         NIJTC =      10 NIJTAt=       0 NIJTCD=       0 NIJTT =      10
         IJTBeg=       1 IJTEnd=      10 KLTBeg=       1 KLTEnd=      10
         IPTBeg=       1 IPTEnd=      10 IPTBCv=       1 IPTECv=      10
         IZTBeg=       1 IZTEnd=      10 IZTBCv=       1 IZTECv=      10
         IWTBeg=      11 IWTEnd=      10 IWTBCv=      11 IWTECv=      10
         INTBeg=       1 INTEnd=       0 IFTBCv=       1 IFTECv=      10
 NCel replicated for PrismC:     1
 CoulSu-InSpLW:  IPartL=    0 NPrtUS=   20 NPrtUL=    1 DoSpLW=F IThBeg=    0 IThEnd=   19 NThAct=   20.
 CoulSu:  IncDef=  1024 NBBP=        1669878 NTPThr=   100 NPartT=   20 Incr=         834 LDynOK=F GPUOK=T.
 CoulSu:  NPrtUS=  20 ThrOK=T IAlg=1 NPAlg=1 LenDen=           0 LWGrdD=           0 DoCopy=F ISkipM=0
          DoSpLW=F IThBeg=    0 IThEnd=   19.
 Enter PrismC:  IPart=  0 JobTyp=22 DoJE=F Cont=F.
 PrismC:  IPart=     0 DynPar=T LinDyn=F Incr=         834 UseFst=F UseS4=T ISplat=2.
 PrismC was handed    33503117 working-precision words and  1827 shell-pairs
 Enter PrismC:  IPart=  8 JobTyp=22 DoJE=F Cont=F.
 Enter PrismC:  IPart=  9 JobTyp=22 DoJE=F Cont=F.
 Enter PrismC:  IPart= 12 JobTyp=22 DoJE=F Cont=F.
 PrismC:  IPart=     8 DynPar=T LinDyn=F Incr=         834 UseFst=F UseS4=T ISplat=2.
 PrismC was handed    33503117 working-precision words and  1827 shell-pairs
 PrismC:  IPart=     9 DynPar=T LinDyn=F Incr=         834 UseFst=F UseS4=T ISplat=2.
 PrismC was handed    33503117 working-precision words and  1827 shell-pairs
 PrismC:  IPart=    12 DynPar=T LinDyn=F Incr=         834 UseFst=F UseS4=T ISplat=2.
 PrismC was handed    33503117 working-precision words and  1827 shell-pairs
 Enter PrismC:  IPart=  7 JobTyp=22 DoJE=F Cont=F.
 Enter PrismC:  IPart=  4 JobTyp=22 DoJE=F Cont=F.
 Enter PrismC:  IPart=  1 JobTyp=22 DoJE=F Cont=F.
 PrismC:  IPart=     7 DynPar=T LinDyn=F Incr=         834 UseFst=F UseS4=T ISplat=2.
 PrismC:  IPart=     1 DynPar=T LinDyn=F Incr=         834 UseFst=F UseS4=T ISplat=2.
 PrismC was handed    33503117 working-precision words and  1827 shell-pairs
 PrismC:  IPart=     4 DynPar=T LinDyn=F Incr=         834 UseFst=F UseS4=T ISplat=2.
 PrismC was handed    33503117 working-precision words and  1827 shell-pairs
 Enter PrismC:  IPart= 10 JobTyp=22 DoJE=F Cont=F.
 Enter PrismC:  IPart=  3 JobTyp=22 DoJE=F Cont=F.
 PrismC was handed    33503117 working-precision words and  1827 shell-pairs
 PrismC:  IPart=    10 DynPar=T LinDyn=F Incr=         834 UseFst=F UseS4=T ISplat=2.
 PrismC was handed    33503117 working-precision words and  1827 shell-pairs
 PrismC:  IPart=     3 DynPar=T LinDyn=F Incr=         834 UseFst=F UseS4=T ISplat=2.
 PrismC was handed    33503117 working-precision words and  1827 shell-pairs
 Enter PrismC:  IPart= 19 JobTyp=22 DoJE=F Cont=F.
 Enter PrismC:  IPart= 17 JobTyp=22 DoJE=F Cont=F.
 Enter PrismC:  IPart= 18 JobTyp=22 DoJE=F Cont=F.
 Enter PrismC:  IPart= 13 JobTyp=22 DoJE=F Cont=F.
 Enter PrismC:  IPart= 11 JobTyp=22 DoJE=F Cont=F.
 Enter PrismC:  IPart=  2 JobTyp=22 DoJE=F Cont=F.
 Enter PrismC:  IPart=  5 JobTyp=22 DoJE=F Cont=F.
 Enter PrismC:  IPart= 15 JobTyp=22 DoJE=F Cont=F.
 Enter PrismC:  IPart= 14 JobTyp=22 DoJE=F Cont=F.
 Enter PrismC:  IPart= 16 JobTyp=22 DoJE=F Cont=F.
 Enter PrismC:  IPart=  6 JobTyp=22 DoJE=F Cont=F.
 PrismC:  IPart=    17 DynPar=T LinDyn=F Incr=         834 UseFst=F UseS4=T ISplat=2.
 PrismC was handed    33503117 working-precision words and  1827 shell-pairs
 PrismC:  IPart=    14 DynPar=T LinDyn=F Incr=         834 UseFst=F UseS4=T ISplat=2.
 PrismC:  IPart=    18 DynPar=T LinDyn=F Incr=         834 UseFst=F UseS4=T ISplat=2.
 PrismC was handed    33503117 working-precision words and  1827 shell-pairs
 PrismC:  IPart=    16 DynPar=T LinDyn=F Incr=         834 UseFst=F UseS4=T ISplat=2.
 PrismC was handed    33503117 working-precision words and  1827 shell-pairs
 PrismC:  IPart=     5 DynPar=T LinDyn=F Incr=         834 UseFst=F UseS4=T ISplat=2.
 PrismC was handed    33503117 working-precision words and  1827 shell-pairs
 PrismC:  IPart=    11 DynPar=T LinDyn=F Incr=         834 UseFst=F UseS4=T ISplat=2.
 PrismC was handed    33503117 working-precision words and  1827 shell-pairs
 PrismC:  IPart=    13 DynPar=T LinDyn=F Incr=         834 UseFst=F UseS4=T ISplat=2.
 PrismC was handed    33503117 working-precision words and  1827 shell-pairs
 PrismC:  IPart=     6 DynPar=T LinDyn=F Incr=         834 UseFst=F UseS4=T ISplat=2.
 PrismC was handed    33503117 working-precision words and  1827 shell-pairs
 PrismC:  IPart=     2 DynPar=T LinDyn=F Incr=         834 UseFst=F UseS4=T ISplat=2.
 PrismC was handed    33503117 working-precision words and  1827 shell-pairs
 PrismC was handed    33503117 working-precision words and  1827 shell-pairs
 PrismC:  IPart=    15 DynPar=T LinDyn=F Incr=         834 UseFst=F UseS4=T ISplat=2.
 PrismC was handed    33503117 working-precision words and  1827 shell-pairs
 PrismC:  IPart=    19 DynPar=T LinDyn=F Incr=         834 UseFst=F UseS4=T ISplat=2.
 PrismC was handed    33503117 working-precision words and  1827 shell-pairs
 IPart=  9 NShTot=       57979 NShNF=       57979 NShFF=           0 MinMC=       7
           NShCPU=       57979 NBCPU=        2097 AvBCPU=        27.6
           NShGPU=           0 NBGPU=           0 AvBGPU=         0.0
 IPart=  2 NShTot=       82696 NShNF=       82696 NShFF=           0 MinMC=       7
           NShCPU=       82696 NBCPU=        3835 AvBCPU=        21.6
           NShGPU=           0 NBGPU=           0 AvBGPU=         0.0
 IPart=  8 NShTot=       83439 NShNF=       83439 NShFF=           0 MinMC=       7
           NShCPU=       83439 NBCPU=        3734 AvBCPU=        22.3
           NShGPU=           0 NBGPU=           0 AvBGPU=         0.0
 IPart= 14 NShTot=       72610 NShNF=       72610 NShFF=           0 MinMC=       7
           NShCPU=       72610 NBCPU=        2564 AvBCPU=        28.3
           NShGPU=           0 NBGPU=           0 AvBGPU=         0.0
 IPart=  3 NShTot=       83701 NShNF=       83701 NShFF=           0 MinMC=       7
           NShCPU=       83701 NBCPU=        3622 AvBCPU=        23.1
           NShGPU=           0 NBGPU=           0 AvBGPU=         0.0
 IPart= 19 NShTot=       43543 NShNF=       43543 NShFF=           0 MinMC=       7
           NShCPU=       43543 NBCPU=        1970 AvBCPU=        22.1
           NShGPU=           0 NBGPU=           0 AvBGPU=         0.0
 IPart=  0 NShTot=       77089 NShNF=       77089 NShFF=           0 MinMC=       7
           NShCPU=       77089 NBCPU=        3443 AvBCPU=        22.4
           NShGPU=           0 NBGPU=           0 AvBGPU=         0.0
 IPart=  7 NShTot=       90531 NShNF=       90531 NShFF=           0 MinMC=       7
           NShCPU=       90531 NBCPU=        3742 AvBCPU=        24.2
           NShGPU=           0 NBGPU=           0 AvBGPU=         0.0
 IPart= 16 NShTot=       48348 NShNF=       48348 NShFF=           0 MinMC=       7
           NShCPU=       48348 NBCPU=        2101 AvBCPU=        23.0
           NShGPU=           0 NBGPU=           0 AvBGPU=         0.0
 IPart=  5 NShTot=       81597 NShNF=       81597 NShFF=           0 MinMC=       7
           NShCPU=       81597 NBCPU=        3823 AvBCPU=        21.3
           NShGPU=           0 NBGPU=           0 AvBGPU=         0.0
 IPart=  6 NShTot=       73623 NShNF=       73623 NShFF=           0 MinMC=       7
           NShCPU=       73623 NBCPU=        3600 AvBCPU=        20.5
           NShGPU=           0 NBGPU=           0 AvBGPU=         0.0
 IPart=  1 NShTot=       66540 NShNF=       66540 NShFF=           0 MinMC=       7
           NShCPU=       66540 NBCPU=        2969 AvBCPU=        22.4
           NShGPU=           0 NBGPU=           0 AvBGPU=         0.0
 IPart= 11 NShTot=       81410 NShNF=       81410 NShFF=           0 MinMC=       7
           NShCPU=       81410 NBCPU=        3466 AvBCPU=        23.5
           NShGPU=           0 NBGPU=           0 AvBGPU=         0.0
 IPart=  4 NShTot=       69308 NShNF=       69308 NShFF=           0 MinMC=       7
           NShCPU=       69308 NBCPU=        2562 AvBCPU=        27.1
           NShGPU=           0 NBGPU=           0 AvBGPU=         0.0
 IPart= 17 NShTot=       75384 NShNF=       75384 NShFF=           0 MinMC=       7
           NShCPU=       75384 NBCPU=        2857 AvBCPU=        26.4
           NShGPU=           0 NBGPU=           0 AvBGPU=         0.0
 IPart= 13 NShTot=       78187 NShNF=       78187 NShFF=           0 MinMC=       7
           NShCPU=       78187 NBCPU=        3248 AvBCPU=        24.1
           NShGPU=           0 NBGPU=           0 AvBGPU=         0.0
 IPart= 15 NShTot=       49309 NShNF=       49309 NShFF=           0 MinMC=       7
           NShCPU=       49309 NBCPU=        2191 AvBCPU=        22.5
           NShGPU=           0 NBGPU=           0 AvBGPU=         0.0
 IPart= 12 NShTot=       47893 NShNF=       47893 NShFF=           0 MinMC=       7
           NShCPU=       47893 NBCPU=        1866 AvBCPU=        25.7
           NShGPU=           0 NBGPU=           0 AvBGPU=         0.0
 IPart= 10 NShTot=       78992 NShNF=       78992 NShFF=           0 MinMC=       7
           NShCPU=       78992 NBCPU=        3808 AvBCPU=        20.7
           NShGPU=           0 NBGPU=           0 AvBGPU=         0.0
 IPart= 18 NShTot=       44561 NShNF=       44561 NShFF=           0 MinMC=       7
           NShCPU=       44561 NBCPU=        2111 AvBCPU=        21.1
           NShGPU=           0 NBGPU=           0 AvBGPU=         0.0
 CoulSu:  NxtVal=        1795603 LenVP=       33503118 MinMC=       7.
 ReadGW:  IGet=0 IStart=           1 Next=           1 LGW=           0.
 Remaining memory in FofDFT      639.94 Mw
 CkSvGd:  ISavGI=        -1 IRadAn=       5 IRASav=       5 ISavGd=        -1.
 CalDSu-InSpLW:  IPartL=    0 NPrtUS=   20 NPrtUL=    1 DoSpLW=F IThBeg=    0 IThEnd=   19 NThAct=   20.
 CalDSu:  NPrtUS=  20 ThrOK=T IAlg=1 NPAlg=2 DoDPD=T LenP=       16290 LenD1P=             0 GPUOK=F
          ISkipM=0 DoSpLW=F IThBeg=    0 IThEnd=   19.
 IPart=  0 IRanGd=          0 ScrnBf=T ScrnGd=T RCrit=4.00D+00 DoMicB=T.
 IPart= 11         8456 of         9524 points in      11 batches and       68 microbatches, Max-NSigAt=       8 Max-NSgAt2=       8
 IPart=  9         9377 of        10754 points in      10 batches and       55 microbatches, Max-NSigAt=       8 Max-NSgAt2=       8
 IPart= 12         7618 of         8722 points in       8 batches and       48 microbatches, Max-NSigAt=       8 Max-NSgAt2=       8
 IPart=  3         8272 of         8794 points in       8 batches and       38 microbatches, Max-NSigAt=       8 Max-NSgAt2=       8
 IPart=  5         9341 of         9826 points in       9 batches and       69 microbatches, Max-NSigAt=       8 Max-NSgAt2=       8
 IPart=  8        10841 of        12144 points in      12 batches and       99 microbatches, Max-NSigAt=       8 Max-NSgAt2=       8
 IPart= 10         8841 of         9320 points in       8 batches and       51 microbatches, Max-NSigAt=       8 Max-NSgAt2=       8
 IPart=  0         8741 of         9382 points in       8 batches and       73 microbatches, Max-NSigAt=       8 Max-NSgAt2=       8
 IPart=  6         7663 of         8190 points in       7 batches and       31 microbatches, Max-NSigAt=       8 Max-NSgAt2=       8
 IPart=  2        10192 of        11048 points in      11 batches and       87 microbatches, Max-NSigAt=       8 Max-NSgAt2=       8
 IPart= 17         8120 of         8954 points in       9 batches and       59 microbatches, Max-NSigAt=       8 Max-NSgAt2=       8
 IPart= 13         6783 of         7270 points in       6 batches and       42 microbatches, Max-NSigAt=       8 Max-NSgAt2=       8
 IPart=  1         5937 of         6300 points in       6 batches and       41 microbatches, Max-NSigAt=       8 Max-NSgAt2=       8
 IPart= 15        10982 of        11280 points in       9 batches and       45 microbatches, Max-NSigAt=       8 Max-NSgAt2=       8
 IPart=  7        12960 of        13886 points in      12 batches and       48 microbatches, Max-NSigAt=       8 Max-NSgAt2=       8
 IPart=  4         8293 of         8422 points in       6 batches and       22 microbatches, Max-NSigAt=       8 Max-NSgAt2=       8
 IPart= 18         5087 of         5324 points in       5 batches and       23 microbatches, Max-NSigAt=       8 Max-NSgAt2=       8
 IPart= 19         5110 of         5324 points in       5 batches and       26 microbatches, Max-NSigAt=       8 Max-NSgAt2=       8
 IPart= 14         7331 of         8126 points in       7 batches and       53 microbatches, Max-NSigAt=       8 Max-NSgAt2=       8
 IPart= 16         5053 of         5324 points in       5 batches and       28 microbatches, Max-NSigAt=       8 Max-NSgAt2=       8
 Polarizability after L703:
                1             2             3 
      1  0.000000D+00
      2  0.000000D+00  0.000000D+00
      3  0.000000D+00  0.000000D+00  0.000000D+00
 Dipole Derivatives after L703:
                 1             2             3             4             5 
      1  -0.124099D+01 -0.566152D+00  0.241451D+00 -0.686674D-01  0.146090D+00
      2  -0.196170D+00 -0.313561D+00  0.349436D-03  0.107065D+00 -0.759193D+00
      3   0.953057D-01  0.208446D-01 -0.397839D+00 -0.136630D-01  0.150957D-01
                 6             7             8             9            10 
      1  -0.718854D-02 -0.117939D+01 -0.170602D+00  0.439896D+00  0.139072D+00
      2  -0.146345D-01  0.965798D-01 -0.932863D+00  0.533365D-01 -0.262980D-02
      3  -0.660945D+00  0.129509D+00 -0.247644D-01 -0.230402D+00  0.369360D-01
                11            12            13            14            15 
      1  -0.256739D-01  0.248477D-01  0.131284D+00  0.176382D-02 -0.568974D-01
      2   0.327025D+00  0.232450D+00  0.452612D-01  0.350307D+00 -0.230501D+00
      3   0.165083D+00  0.388824D+00 -0.780169D-01 -0.182191D+00  0.363168D+00
                16            17            18            19            20 
      1   0.177632D+00  0.537152D+00 -0.984100D-01  0.934124D+00 -0.412845D+00
      2   0.384411D-01  0.769891D+00 -0.769838D-01 -0.149359D+00  0.223909D+00
      3  -0.719872D-02 -0.411650D-02  0.113313D+00 -0.946699D-01  0.569755D-01
                21            22            23            24 
      1  -0.323524D+00  0.110694D+01  0.490268D+00 -0.220175D+00
      2   0.562185D-01  0.608109D-01  0.334484D+00 -0.202345D-01
      3   0.134154D+00 -0.682022D-01 -0.469263D-01  0.289728D+00
 Hessian after L703:
                1             2             3             4             5 
      1  0.553446D+00
      2  0.391508D-01  0.375550D+00
      3 -0.735420D-01 -0.657684D-01  0.786921D-01
      4 -0.190345D+00  0.694998D-01  0.565494D-02  0.486758D+00
      5  0.114300D+00 -0.172359D+00  0.541525D-02 -0.213990D-01  0.519002D+00
      6 -0.678416D-02  0.112632D-01 -0.604961D-01 -0.146700D-01  0.624453D-02
      7 -0.359923D-01 -0.118439D-01  0.169939D-02 -0.156513D+00 -0.344072D-01
      8  0.269532D-01  0.154467D-01  0.612200D-03 -0.573082D-01 -0.118328D+00
      9  0.177544D-02  0.112216D-02  0.166827D-02  0.368944D-02 -0.273816D-02
     10 -0.115212D-01  0.281016D-01  0.230089D-01 -0.476130D-01 -0.814283D-02
     11  0.153019D-01 -0.200006D-01 -0.176615D-01 -0.204750D-02 -0.116482D+00
     12  0.603260D-02 -0.686513D-03  0.963673D-02 -0.523974D-02 -0.106522D+00
     13 -0.941137D-02  0.288959D-01 -0.236280D-01 -0.535397D-01 -0.224689D-01
     14  0.121228D-01 -0.219801D-01  0.192726D-01 -0.125097D-01 -0.122528D+00
     15 -0.547515D-02  0.158608D-02  0.502106D-02  0.204424D-01  0.100657D+00
     16  0.347699D-02  0.208209D-02 -0.496210D-04  0.299755D-02 -0.245211D-01
     17  0.178170D-04  0.155075D-02 -0.566273D-04  0.385777D-02 -0.824724D-02
     18  0.587826D-03 -0.340649D-03 -0.327287D-03 -0.205623D-02 -0.212425D-02
     19 -0.506085D-02 -0.348361D-02  0.665834D-03 -0.103014D-01  0.159104D-01
     20 -0.324980D-02 -0.150427D-02  0.185176D-03 -0.105479D-01  0.100818D-01
     21 -0.130090D-02  0.754697D-04  0.731096D-03 -0.425429D-02 -0.701253D-03
     22 -0.304592D+00 -0.152403D+00  0.661905D-01 -0.314432D-01 -0.192716D-01
     23 -0.204597D+00 -0.176703D+00  0.580014D-01  0.304546D-01  0.886036D-02
     24  0.787063D-01  0.527487D-01 -0.349258D-01 -0.356656D-02 -0.230923D-03
                6             7             8             9            10 
      6  0.503820D+00
      7 -0.146536D-01  0.491014D+00
      8 -0.118359D-01 -0.448836D-01  0.572968D+00
      9 -0.514930D-01 -0.749874D-01  0.229326D-01  0.106510D+00
[...]
     18 -0.283375D-03  0.150471D-03  0.544260D-03 -0.449118D-02  0.443375D-02
     19 -0.544927D-02  0.204627D-02  0.160200D-01 -0.899707D-03 -0.554563D-02
     20  0.492248D-02 -0.182759D-02 -0.166012D-01  0.629319D-02  0.488282D-03
     21 -0.995710D-04 -0.412074D-03 -0.125872D-02  0.270853D-02 -0.160786D-02
     22 -0.408770D-03 -0.566099D-03 -0.917764D-03  0.302298D-02 -0.184866D-02
     23 -0.179570D-01  0.587430D-04 -0.700576D-03  0.887934D-03  0.489770D-02
     24 -0.182662D-01 -0.952811D-04 -0.359618D-03  0.120238D-02  0.465691D-02
     25  0.166899D-01  0.246604D-04  0.140616D-02 -0.477336D-02 -0.837388D-03
     26  0.163807D-01 -0.129364D-03  0.174712D-02 -0.445891D-02 -0.107818D-02
                6             7             8             9            10 
      6  0.371026D+00
      7  0.301292D-03  0.371375D+00
      8  0.215557D-03  0.810014D-03  0.175962D+00
      9 -0.506011D-02  0.554882D-02  0.206926D-01  0.166864D+00
     10  0.108386D-02 -0.169737D-02 -0.755935D-02 -0.580186D-01  0.706349D-01
     11  0.679296D-03 -0.165150D-02 -0.647986D-02 -0.571481D-01  0.433577D-02
     12  0.105999D-02 -0.100839D-02 -0.471002D-02 -0.373004D-01 -0.251446D-01
     13  0.370120D-02 -0.158303D-02 -0.542676D-02 -0.436551D-01  0.191024D-01
     14 -0.126824D-02  0.182046D-03  0.270956D-02  0.230553D-01 -0.924475D-02
     15  0.605914D-02 -0.104864D-01 -0.252621D-02 -0.179601D-01  0.397754D-02
     16 -0.976402D-02  0.580800D-02  0.441366D-02  0.183540D-01 -0.458698D-02
     17  0.390762D-02  0.484280D-02 -0.185872D-02 -0.405838D-03  0.671491D-03
     18  0.102218D-02 -0.318118D-03 -0.191299D-05 -0.230322D-02  0.410931D-02
     19 -0.215431D-03  0.914240D-03  0.266343D-02  0.218463D-01 -0.200674D-01
     20 -0.679722D-03 -0.960554D-03 -0.278796D-02 -0.218046D-01  0.158343D-01
     21 -0.140611D-02 -0.610260D-03 -0.274942D-03  0.656600D-03  0.184632D-01
     22  0.338417D-03  0.935519D-03 -0.280507D-03  0.492264D-03  0.189493D-01
     23 -0.190409D-03 -0.141182D-02 -0.116325D-02 -0.105476D-01 -0.162444D-01
     24  0.155412D-02  0.133958D-03 -0.116882D-02 -0.107119D-01 -0.157583D-01
     25 -0.148812D-02 -0.859611D-04  0.158279D-02  0.965529D-02 -0.139790D-02
     26  0.256404D-03  0.145982D-02  0.157723D-02  0.949095D-02 -0.911823D-03
               11            12            13            14            15 
     11  0.706582D-01
     12  0.172851D-01  0.680245D-01
     13 -0.248224D-01 -0.246139D-02  0.730999D-01
     14 -0.846761D-02 -0.183378D-01 -0.195333D-01  0.316721D-01
     15  0.200775D-02  0.456358D-02  0.114205D-01 -0.329771D-02  0.705108D-01
     16 -0.301786D-02 -0.474118D-02 -0.944849D-02  0.271942D-02 -0.375978D-01
     17  0.990286D-03  0.887661D-04 -0.193477D-02  0.599111D-03 -0.322737D-01
     18 -0.319962D-02 -0.204154D-01  0.219459D-01 -0.246791D-03  0.239335D-02
     19 -0.155148D-01  0.241864D-01  0.299270D-02 -0.139184D-01 -0.931078D-03
     20  0.206761D-01 -0.369514D-02 -0.245805D-01  0.142309D-01 -0.125513D-02
     21 -0.187456D-01 -0.253788D-02  0.252907D-02 -0.354557D-03 -0.986945D-03
     22 -0.187707D-01 -0.310182D-02  0.260668D-02 -0.165141D-03  0.125851D-03
     23  0.143774D-02  0.100369D-01  0.817684D-02  0.775450D-02  0.267222D-02
     24  0.141263D-02  0.947298D-02  0.825445D-02  0.794392D-02  0.378502D-02
     25  0.163223D-01 -0.664999D-02 -0.102403D-01 -0.829621D-02 -0.285424D-02
     26  0.162972D-01 -0.721393D-02 -0.101627D-01 -0.810679D-02 -0.174144D-02
               16            17            18            19            20 
     16  0.717947D-01
     17 -0.337158D-01  0.649622D-01
     18 -0.155502D-02 -0.830868D-03  0.169084D-01
     19  0.142399D-02 -0.564143D-03 -0.717540D-02  0.241043D-01
     20  0.175647D-04  0.121905D-02 -0.687287D-02 -0.154882D-01  0.250250D-01
     21  0.130825D-03  0.642086D-03 -0.599141D-02  0.271129D-02  0.228796D-02
     22 -0.212521D-03  0.382186D-03 -0.602048D-02  0.218328D-02  0.228650D-02
     23 -0.291758D-02  0.173378D-04  0.301783D-02 -0.135342D-02 -0.111850D-02
     24 -0.326093D-02 -0.242563D-03  0.298877D-02 -0.188143D-02 -0.111996D-02
     25  0.224099D-02  0.390468D-03  0.235906D-02 -0.568213D-03 -0.158468D-02
     26  0.189764D-02  0.130568D-03  0.232999D-02 -0.109622D-02 -0.158614D-02
               21            22            23            24            25 
     21  0.152449D-01
     22  0.138996D-01  0.158825D-01
     23 -0.634219D-02 -0.783373D-02  0.141454D-01
     24 -0.768756D-02 -0.585079D-02  0.126538D-01  0.144906D-01
     25 -0.590958D-02 -0.734265D-02 -0.619623D-02 -0.762929D-02  0.140223D-01
     26 -0.725494D-02 -0.535971D-02 -0.768776D-02 -0.579253D-02  0.125893D-01
               26 
     26  0.144845D-01
 Leave Link  716 at Wed May 22 18:43:02 2019, MaxMem=   671088640 cpu:               0.8 elap:               0.1
 (Enter /shared/centos7/gaussian/g16/l103.exe)

 GradGradGradGradGradGradGradGradGradGradGradGradGradGradGradGradGradGrad
 Berny optimization.
 Red2BG is reusing G-inverse.
 Internal  Forces:  Max     0.000013084 RMS     0.000003148
 Search for a local minimum.
 Step number   1 out of a maximum of    2
 All quantities printed in internal units (Hartrees-Bohrs-Radians)
 Second derivative matrix not updated -- analytic derivatives used.
 ITU=  0
     Eigenvalues ---    0.00050   0.00230   0.00516   0.05991   0.06994
     Eigenvalues ---    0.09410   0.09748   0.11117   0.13407   0.16198
     Eigenvalues ---    0.23596   0.30559   0.31767   0.33628   0.37178
     Eigenvalues ---    0.37242   0.40977   0.54812
 Angle between quadratic step and forces=  79.39 degrees.
 Linear search not attempted -- first point.
 Iteration  1 RMS(Cart)=  0.00013612 RMS(Int)=  0.00000002
 Iteration  2 RMS(Cart)=  0.00000002 RMS(Int)=  0.00000000
 ITry= 1 IFail=0 DXMaxC= 3.69D-04 DCOld= 1.00D+10 DXMaxT= 3.00D-01 DXLimC= 3.00D+00 Rises=F
 Variable       Old X    -DE/DX   Delta X   Delta X   Delta X     New X
                                 (Linear)    (Quad)   (Total)
    R1        2.67588   0.00001   0.00000   0.00005   0.00005   2.67593
    R2        1.81213   0.00000   0.00000   0.00001   0.00001   1.81214
    R3        2.79260   0.00000   0.00000   0.00000   0.00000   2.79260
    R4        2.08282  -0.00000   0.00000  -0.00001  -0.00001   2.08280
    R5        2.07525  -0.00000   0.00000  -0.00001  -0.00001   2.07524
    R6        2.03790  -0.00000   0.00000  -0.00000  -0.00000   2.03790
    R7        2.03748  -0.00000   0.00000  -0.00001  -0.00001   2.03747
    A1        1.89917   0.00000   0.00000  -0.00001  -0.00001   1.89917
    A2        1.89843   0.00000   0.00000  -0.00002  -0.00002   1.89842
    A3        1.92508  -0.00000   0.00000  -0.00002  -0.00002   1.92506
    A4        1.94014  -0.00000   0.00000  -0.00001  -0.00001   1.94013
    A5        1.92314  -0.00000   0.00000   0.00001   0.00001   1.92315
    A6        1.92001  -0.00000   0.00000   0.00000   0.00000   1.92001
    A7        1.85705   0.00000   0.00000   0.00003   0.00003   1.85708
    A8        2.07860  -0.00000   0.00000  -0.00004  -0.00004   2.07856
    A9        2.10032   0.00001   0.00000   0.00006   0.00006   2.10038
   A10        2.09123  -0.00000   0.00000  -0.00000  -0.00000   2.09123
    D1       -3.04642  -0.00000   0.00000  -0.00015  -0.00015  -3.04656
    D2       -0.93538  -0.00000   0.00000  -0.00016  -0.00016  -0.93554
    D3        1.12019   0.00000   0.00000  -0.00013  -0.00013   1.12006
    D4        0.39725  -0.00000   0.00000   0.00019   0.00019   0.39743
    D5       -2.91745   0.00000   0.00000   0.00035   0.00035  -2.91710
    D6       -1.71498  -0.00000   0.00000   0.00021   0.00021  -1.71477
    D7        1.25351   0.00000   0.00000   0.00038   0.00038   1.25389
    D8        2.52610  -0.00000   0.00000   0.00017   0.00017   2.52627
    D9       -0.78860   0.00000   0.00000   0.00034   0.00034  -0.78826
         Item               Value     Threshold  Converged?
 Maximum Force            0.000013     0.000450     YES
 RMS     Force            0.000003     0.000300     YES
 Maximum Displacement     0.000369     0.001800     YES
 RMS     Displacement     0.000136     0.001200     YES
 Predicted change in Energy=-1.110477D-09
 Optimization completed.
    -- Stationary point found.
                           ----------------------------
                           !   Optimized Parameters   !
                           ! (Angstroms and Degrees)  !
 --------------------------                            --------------------------
 ! Name  Definition              Value          Derivative Info.                !
 --------------------------------------------------------------------------------
 ! R1    R(1,2)                  1.416          -DE/DX =    0.0                 !
 ! R2    R(1,8)                  0.9589         -DE/DX =    0.0                 !
 ! R3    R(2,3)                  1.4778         -DE/DX =    0.0                 !
 ! R4    R(2,4)                  1.1022         -DE/DX =    0.0                 !
 ! R5    R(2,5)                  1.0982         -DE/DX =    0.0                 !
 ! R6    R(3,6)                  1.0784         -DE/DX =    0.0                 !
 ! R7    R(3,7)                  1.0782         -DE/DX =    0.0                 !
 ! A1    A(2,1,8)              108.8146         -DE/DX =    0.0                 !
 ! A2    A(1,2,3)              108.7721         -DE/DX =    0.0                 !
 ! A3    A(1,2,4)              110.2991         -DE/DX =    0.0                 !
 ! A4    A(1,2,5)              111.1616         -DE/DX =    0.0                 !
 ! A5    A(3,2,4)              110.1877         -DE/DX =    0.0                 !
 ! A6    A(3,2,5)              110.0083         -DE/DX =    0.0                 !
 ! A7    A(4,2,5)              106.4011         -DE/DX =    0.0                 !
 ! A8    A(2,3,6)              119.0948         -DE/DX =    0.0                 !
 ! A9    A(2,3,7)              120.3392         -DE/DX =    0.0                 !
 ! A10   A(6,3,7)              119.8189         -DE/DX =    0.0                 !
 ! D1    D(8,1,2,3)           -174.5469         -DE/DX =    0.0                 !
 ! D2    D(8,1,2,4)            -53.5934         -DE/DX =    0.0                 !
 ! D3    D(8,1,2,5)             64.1824         -DE/DX =    0.0                 !
 ! D4    D(1,2,3,6)             22.7605         -DE/DX =    0.0                 !
 ! D5    D(1,2,3,7)           -167.1575         -DE/DX =    0.0                 !
 ! D6    D(4,2,3,6)            -98.2613         -DE/DX =    0.0                 !
 ! D7    D(4,2,3,7)             71.8206         -DE/DX =    0.0                 !
 ! D8    D(5,2,3,6)            144.7346         -DE/DX =    0.0                 !
 ! D9    D(5,2,3,7)            -45.1834         -DE/DX =    0.0                 !
 --------------------------------------------------------------------------------
 GradGradGradGradGradGradGradGradGradGradGradGradGradGradGradGradGradGrad

 Leave Link  103 at Wed May 22 18:43:02 2019, MaxMem=   671088640 cpu:               0.5 elap:               0.1
 (Enter /shared/centos7/gaussian/g16/l9999.exe)

 ----------------------------------------------------------------------

 Electric dipole moment (input orientation):
 (Debye = 10**-18 statcoulomb cm , SI units = C m)
                  (au)            (Debye)         (10**-30 SI)
   Tot        0.686162D+00      0.174405D+01      0.581752D+01
   x          0.116055D+00      0.294983D+00      0.983957D+00
   y          0.339307D+00      0.862432D+00      0.287676D+01
   z         -0.584996D+00     -0.148691D+01     -0.495980D+01

 Dipole polarizability, Alpha (input orientation).
 (esu units = cm**3 , SI units = C**2 m**2 J**-1)
 Alpha(0;0):
               (au)            (10**-24 esu)      (10**-40 SI)
   iso        0.285344D+02      0.422837D+01      0.470470D+01
   aniso      0.913963D+01      0.135435D+01      0.150692D+01
   xx         0.268212D+02      0.397449D+01      0.442221D+01
   yx        -0.304872D+01     -0.451774D+00     -0.502667D+00
   yy         0.325693D+02      0.482627D+01      0.536995D+01
   zx        -0.210662D+01     -0.312169D+00     -0.347335D+00
   zy        -0.134510D+01     -0.199324D+00     -0.221777D+00
   zz         0.262129D+02      0.388435D+01      0.432192D+01

 ----------------------------------------------------------------------

 Dipole orientation:
     8         -1.88922087         -1.08431659         -2.00905325
     6         -0.56682142          0.83140277         -0.68934784
     6          0.25125139          2.77970744         -2.51512307
     1         -1.78882588          1.68014477          0.76820547
     1          1.08021157          0.05505709          0.30624994
     1         -0.74301159          2.95901459         -4.28496646
     1          1.61217102          4.19453667         -1.96971179
     1         -2.55936470         -2.26495047         -0.80870578

 Electric dipole moment (dipole orientation):
 (Debye = 10**-18 statcoulomb cm , SI units = C m)
                  (au)            (Debye)         (10**-30 SI)
   Tot        0.686162D+00      0.174405D+01      0.581752D+01
   x          0.000000D+00      0.000000D+00      0.000000D+00
   y          0.000000D+00      0.000000D+00      0.000000D+00
   z          0.686162D+00      0.174405D+01      0.581752D+01

 Dipole polarizability, Alpha (dipole orientation).
 (esu units = cm**3 , SI units = C**2 m**2 J**-1)
 Alpha(0;0):
               (au)            (10**-24 esu)      (10**-40 SI)
   iso        0.285344D+02      0.422837D+01      0.470470D+01
   aniso      0.913963D+01      0.135435D+01      0.150692D+01
   xx         0.264055D+02      0.391288D+01      0.435367D+01
   yx         0.406479D+01      0.602339D+00      0.670193D+00
   yy         0.301815D+02      0.447244D+01      0.497626D+01
   zx         0.421068D-01      0.623958D-02      0.694247D-02
   zy        -0.275339D+01     -0.408011D+00     -0.453973D+00
   zz         0.290164D+02      0.429978D+01      0.478415D+01

 ----------------------------------------------------------------------

 Test job not archived.
 1\1\GINC-C0110\Freq\UM062X\CC-pVTZ\C2H5O1(2)\HARMS.N\22-May-2019\0\\#P
  Geom=AllCheck Guess=TCheck SCRF=Check Test GenChk UM062X/CC-pVTZ Freq
 \\Gaussian input prepared by ASE\\0,2\O,-1.1900170801,0.0174675267,1.0
 210478464\C,-0.3371531626,-0.548731988,0.042711709\C,-0.0277988868,-1.
 9409528538,0.4298143422\H,-0.8230912627,-0.527978854,-0.9463437346\H,0
 .5915221033,0.0290423475,-0.0558913569\H,-0.6999386541,-2.4626887832,1
 .0923803816\H,0.7638656212,-2.480615349,-0.0646742701\H,-1.4599370691,
 0.8898807429,0.7284687636\\Version=EM64L-G16RevA.03\State=2-A\HF=-154.
 3535809\S2=0.755199\S2-1=0.\S2A=0.750021\RMSD=1.320e-09\RMSF=4.974e-06
 \ZeroPoint=0.0650341\Thermal=0.0698213\Dipole=0.1160552,0.3393067,-0.5
 849959\DipoleDeriv=-0.6955897,0.1623322,0.1657856,0.1451409,-0.5355361
 ,-0.2481176,0.187459,-0.2788207,-0.6075171,0.5509172,-0.1546107,-0.118
 9429,-0.1417112,0.450372,0.1932206,-0.1472929,0.2531054,0.521508,-0.07
 50988,-0.0613124,-0.1862887,-0.0375917,-0.0636164,-0.0859846,-0.193393
 7,-0.0641656,-0.1666789,-0.0297035,0.0661936,-0.0980473,0.0344031,-0.0
 234267,0.0107796,-0.0428072,-0.0094177,-0.1665037,-0.1397762,-0.064382
 5,0.0595797,-0.0863636,-0.0632889,0.022647,0.0353923,-0.023725,0.01823
 02,0.0382985,-0.0146104,0.0763441,0.0119207,0.0204095,0.0325746,0.0549
 775,0.0613999,0.0791326,0.0288507,0.0517848,0.0779843,0.0477249,0.0034
 037,0.0078582,0.093137,-0.0198923,0.0705964,0.3221018,0.0146054,0.0235
 852,0.026477,0.211683,0.0670222,0.0125279,0.081516,0.2512325\Polar=26.
 8211769,-3.048724,32.5692862,-2.1066217,-1.3451025,26.2128854\Quadrupo
 le=-0.5277211,2.0116376,-1.4839165,-0.9785209,-0.0479661,-0.6821279\PG
 =C01 [X(C2H5O1)]\NImag=0\\0.20587606,-0.21132542,0.56847875,-0.0950554
 0,-0.09071030,0.28554678,-0.12876494,0.05053895,0.07215209,0.52700419,
 0.03357980,-0.10887645,-0.01747840,0.01857734,0.52986892,0.09088884,-0
 .05426199,-0.16561181,-0.00456721,-0.02016190,0.49808227,-0.01107373,0
 .03587178,-0.00274308,-0.07649913,0.02755090,0.01456300,0.43956823,0.0
 1243681,-0.02351183,-0.00035306,0.03988781,-0.22528450,0.04808644,-0.0
 9238026,0.52423929,0.01102334,-0.03120961,0.00671830,0.00725408,0.0637
 2685,-0.07402661,-0.27783237,-0.10674797,0.31196093,0.00801829,0.00401
 596,0.03015994,-0.10285593,-0.00063658,-0.10131205,-0.00034710,0.00451
 212,-0.00462409,0.10844571,0.00012121,-0.00073302,-0.02004329,0.005172
 68,-0.04535256,0.01308141,0.01313310,-0.00821178,0.02631784,-0.0060577
 6,0.05199585,0.00285258,-0.00868169,-0.03158022,-0.09493401,-0.0014126
 1,-0.22056966,-0.00627355,0.00995318,-0.00648238,0.10138720,-0.0023327
 2,0.25804622,-0.02242862,-0.00005661,0.01435378,-0.21510985,-0.1070651
 4,0.00973939,0.00829799,0.00136107,-0.00148722,-0.01411032,-0.01153104
 ,-0.00268916,0.24313578,0.01840106,0.01012070,-0.00503303,-0.11397210,
 -0.12368994,0.00436663,-0.02301524,-0.01874894,0.00780766,-0.00084471,
 0.00257408,0.00029583,0.11768167,0.13213113,0.03044446,0.00838946,-0.0
 0843558,0.00804993,0.00229350,-0.04772763,0.00745812,0.01010209,-0.001
 45863,-0.02483578,-0.01542893,0.00110096,-0.01971155,-0.00740212,0.056
 39391,0.00045730,-0.00140091,-0.00012508,0.00728383,0.00576632,-0.0051
 3353,-0.15685072,-0.08421934,0.14040591,-0.00088368,0.00003662,-0.0002
 3694,-0.00018570,0.00065603,0.00000575,0.15688135,-0.00070760,0.003330
 10,-0.00065205,-0.01796746,-0.00916689,0.01546605,-0.08170622,-0.11958
 374,0.10022155,0.00005921,-0.00122053,0.00030863,0.00113686,-0.0044171
 5,0.00142911,0.08980402,0.12016836,-0.00118216,-0.00083729,0.00078135,
 0.00802631,0.00222031,-0.00164265,0.13428787,0.09957757,-0.13914305,-0
 .00056351,-0.00014829,-0.00020059,-0.00151340,-0.00025038,-0.00025904,
 -0.14376506,-0.10675002,0.14368155,0.00084113,0.00097373,-0.00114172,-
 0.00206084,-0.00213758,0.00359086,-0.19996266,0.11721854,0.12198493,0.
 00036892,-0.00018702,-0.00011320,0.00058449,0.00083696,-0.00048144,-0.
 00672586,0.00953851,0.00475247,0.20637376,0.00221411,-0.00644436,0.001
 89036,0.01665199,-0.00298045,-0.01533344,0.11742053,-0.12764436,-0.057
 05554,0.00035789,-0.00014547,0.00087211,-0.00083283,0.00075470,-0.0003
 4804,-0.01074508,0.01018650,0.00640273,-0.12608496,0.12665594,-0.00002
 050,0.00171052,-0.00059217,-0.00803314,0.00367298,0.00620634,0.1269106
 8,-0.05944975,-0.09381068,0.00035974,-0.00078507,-0.00043106,0.0007134
 3,-0.00013085,0.00017055,0.00914334,-0.00989943,-0.00320735,-0.1289684
 7,0.06475447,0.09087971,-0.05292549,0.12138252,-0.01760051,-0.00899733
 ,0.02436494,-0.00776930,-0.00313289,0.00118325,0.00327543,0.00136411,-
 0.00068778,0.00000710,-0.00018378,0.00025633,-0.00092950,0.00002347,-0
 .00015732,-0.00004252,0.00058105,0.00101835,-0.00010508,0.06327084,0.1
 4528004,-0.44236389,0.13237977,0.00111078,-0.01451813,0.00875680,0.003
 12541,-0.00125414,-0.00306077,-0.00140613,0.00109343,0.00099727,-0.000
 69397,0.00127543,0.00096493,0.00010235,0.00070334,-0.00021463,-0.00015
 818,-0.00038249,0.00012714,-0.14736030,0.45544646,-0.03895115,0.175600
 90,-0.08682665,0.01205195,-0.03286071,0.00528975,0.00362933,-0.0011685
 1,-0.00375788,-0.00057146,-0.00066095,0.00011674,0.00059474,0.00034626
 ,0.00021547,-0.00029437,-0.00012383,-0.00001023,0.00037658,-0.00118264
 ,0.00078465,0.02316438,-0.13995051,0.08418816\\0.00000679,-0.00000245,
 -0.00000948,-0.00000518,0.00000356,0.00001013,-0.00000199,0.00000324,0
 .00000823,-0.00000403,-0.00000360,-0.00000340,-0.00000341,0.00000204,-
 0.00000619,0.00000604,-0.00000057,0.00000521,0.00000466,0.00000251,-0.
 00000215,-0.00000288,-0.00000472,-0.00000234\\\@


 HICKORY, DICKORY, DOCK
 TWO MICE RAN UP THE CLOCK
 THE CLOCK STRUCK ONE...
 THE OTHER ESCAPED WITH MINOR INJURIES.
 Job cpu time:       0 days  0 hours 35 minutes 46.9 seconds.
 Elapsed time:       0 days  0 hours  1 minutes 48.2 seconds.
 File lengths (MBytes):  RWF=   1312 Int=      0 D2E=      0 Chk=     32 Scr=     32
 Normal termination of Gaussian 16 at Wed May 22 18:43:03 2019.
