 Entering Gaussian System, Link 0=g16
 Initial command:
 /shared/centos7/gaussian/g16/l1.exe "/scratch/harms.n/gauss_scrdir/Gau-17611.inp" -scrdir="/scratch/harms.n/gauss_scrdir/"
 Entering Link 1 = /shared/centos7/gaussian/g16/l1.exe PID=     17612.
  
 Copyright (c) 1988,1990,1992,1993,1995,1998,2003,2009,2016,
            Gaussian, Inc.  All Rights Reserved.
  
 This is part of the Gaussian(R) 16 program.  It is based on
 the Gaussian(R) 09 system (copyright 2009, Gaussian, Inc.),
 the Gaussian(R) 03 system (copyright 2003, Gaussian, Inc.),
 the Gaussian(R) 98 system (copyright 1998, Gaussian, Inc.),
 the Gaussian(R) 94 system (copyright 1995, Gaussian, Inc.),
 the Gaussian 92(TM) system (copyright 1992, Gaussian, Inc.),
 the Gaussian 90(TM) system (copyright 1990, Gaussian, Inc.),
 the Gaussian 88(TM) system (copyright 1988, Gaussian, Inc.),
 the Gaussian 86(TM) system (copyright 1986, Carnegie Mellon
 University), and the Gaussian 82(TM) system (copyright 1983,
 Carnegie Mellon University). Gaussian is a federally registered
 trademark of Gaussian, Inc.
  
 This software contains proprietary and confidential information,
 including trade secrets, belonging to Gaussian, Inc.
  
 This software is provided under written license and may be
 used, copied, transmitted, or stored only in accord with that
 written license.
  
 The following legend is applicable only to US Government
 contracts under FAR:
  
                    RESTRICTED RIGHTS LEGEND
  
 Use, reproduction and disclosure by the US Government is
 subject to restrictions as set forth in subparagraphs (a)
 and (c) of the Commercial Computer Software - Restricted
 Rights clause in FAR 52.227-19.
  
 Gaussian, Inc.
 340 Quinnipiac St., Bldg. 40, Wallingford CT 06492
  
  
 ---------------------------------------------------------------
 Warning -- This program may not be used in any manner that
 competes with the business of Gaussian, Inc. or will provide
 assistance to any competitor of Gaussian, Inc.  The licensee
 of this program is prohibited from giving any competitor of
 Gaussian, Inc. access to this program.  By using this program,
 the user acknowledges that Gaussian, Inc. is engaged in the
 business of creating and licensing software in the field of
 computational chemistry and represents and warrants to the
 licensee that it is not a competitor of Gaussian, Inc. and that
 it will not use this program in any manner prohibited above.
 ---------------------------------------------------------------
  

 Cite this work as:
 Gaussian 16, Revision A.03,
 M. J. Frisch, G. W. Trucks, H. B. Schlegel, G. E. Scuseria, 
 M. A. Robb, J. R. Cheeseman, G. Scalmani, V. Barone, 
 G. A. Petersson, H. Nakatsuji, X. Li, M. Caricato, A. V. Marenich, 
 J. Bloino, B. G. Janesko, R. Gomperts, B. Mennucci, H. P. Hratchian, 
 J. V. Ortiz, A. F. Izmaylov, J. L. Sonnenberg, D. Williams-Young, 
 F. Ding, F. Lipparini, F. Egidi, J. Goings, B. Peng, A. Petrone, 
 T. Henderson, D. Ranasinghe, V. G. Zakrzewski, J. Gao, N. Rega, 
 G. Zheng, W. Liang, M. Hada, M. Ehara, K. Toyota, R. Fukuda, 
 J. Hasegawa, M. Ishida, T. Nakajima, Y. Honda, O. Kitao, H. Nakai, 
 T. Vreven, K. Throssell, J. A. Montgomery, Jr., J. E. Peralta, 
 F. Ogliaro, M. J. Bearpark, J. J. Heyd, E. N. Brothers, K. N. Kudin, 
 V. N. Staroverov, T. A. Keith, R. Kobayashi, J. Normand, 
 K. Raghavachari, A. P. Rendell, J. C. Burant, S. S. Iyengar, 
 J. Tomasi, M. Cossi, J. M. Millam, M. Klene, C. Adamo, R. Cammi, 
 J. W. Ochterski, R. L. Martin, K. Morokuma, O. Farkas, 
 J. B. Foresman, and D. J. Fox, Gaussian, Inc., Wallingford CT, 2016.
 
 ******************************************
 Gaussian 16:  EM64L-G16RevA.03 25-Dec-2016
                22-May-2019 
 ******************************************
 %nprocshared=20
 Will use up to   20 processors via shared memory.
 %mem=5GB
 ----------------------------------------------------------------------
 #p m062x/cc-pVTZ opt=(calcfc,maxcycles=900) freq IOP(7/33=1,2/16=3) sc
 f=(maxcycle=900)
 ----------------------------------------------------------------------
 1/6=900,10=4,18=20,19=15,26=3,38=1/1,3;
 2/9=110,12=2,16=3,17=6,18=5,40=1/2;
 3/5=16,6=1,11=2,25=1,30=1,71=2,74=-55,140=1/1,2,3;
 4//1;
 5/5=2,7=900,38=5/2;
 8/6=4,10=90,11=11/1;
 11/6=1,8=1,9=11,15=111,16=1/1,2,10;
 10/6=1,13=1/2;
 6/7=2,8=2,9=2,10=2,28=1/1;
 7/10=1,18=20,25=1,33=1/1,2,3,16;
 1/6=900,10=4,18=20,19=15,26=3/3(2);
 2/9=110,16=3/2;
 99//99;
 2/9=110,16=3/2;
 3/5=16,6=1,11=2,25=1,30=1,71=1,74=-55/1,2,3;
 4/5=5,16=3,69=1/1;
 5/5=2,7=900,38=5/2;
 7/33=1/1,2,3,16;
 1/6=900,18=20,19=15,26=3/3(-5);
 2/9=110,16=3/2;
 6/7=2,8=2,9=2,10=2,19=2,28=1/1;
 99/9=1/99;
 Leave Link    1 at Wed May 22 18:33:39 2019, MaxMem=   671088640 cpu:              63.0 elap:               3.3
 (Enter /shared/centos7/gaussian/g16/l101.exe)
 ------------------------------
 Gaussian input prepared by ASE
 ------------------------------
 Symbolic Z-matrix:
 Charge =  0 Multiplicity = 2
 O                    -1.17826  -0.08393   1.00919 
 C                    -0.23877  -0.51608   0.05873 
 C                     0.29415  -1.90644   0.37744 
 H                    -0.68174  -0.49776  -0.95057 
 H                     0.61604   0.19206   0.01335 
 H                     1.16696  -2.25833  -0.17995 
 H                     0.18655  -2.2844    1.39754 
 H                    -1.584     0.73938   0.65515 
 
 ITRead=  0  0  0  0  0  0  0  0
 MicOpt= -1 -1 -1 -1 -1 -1 -1 -1
 NAtoms=      8 NQM=        8 NQMF=       0 NMMI=      0 NMMIF=      0
                NMic=       0 NMicF=      0.
                    Isotopes and Nuclear Properties:
 (Nuclear quadrupole moments (NQMom) in fm**2, nuclear magnetic moments (NMagM)
  in nuclear magnetons)

  Atom         1           2           3           4           5           6           7           8
 IAtWgt=          16          12          12           1           1           1           1           1
 AtmWgt=  15.9949146  12.0000000  12.0000000   1.0078250   1.0078250   1.0078250   1.0078250   1.0078250
 NucSpn=           0           0           0           1           1           1           1           1
 AtZEff=  -0.0000000  -0.0000000  -0.0000000  -0.0000000  -0.0000000  -0.0000000  -0.0000000  -0.0000000
 NQMom=    0.0000000   0.0000000   0.0000000   0.0000000   0.0000000   0.0000000   0.0000000   0.0000000
 NMagM=    0.0000000   0.0000000   0.0000000   2.7928460   2.7928460   2.7928460   2.7928460   2.7928460
 AtZNuc=   8.0000000   6.0000000   6.0000000   1.0000000   1.0000000   1.0000000   1.0000000   1.0000000
 Leave Link  101 at Wed May 22 18:33:39 2019, MaxMem=   671088640 cpu:               5.1 elap:               0.3
 (Enter /shared/centos7/gaussian/g16/l103.exe)

 GradGradGradGradGradGradGradGradGradGradGradGradGradGradGradGradGradGrad
 Berny optimization.
 Initialization pass.
                           ----------------------------
                           !    Initial Parameters    !
                           ! (Angstroms and Degrees)  !
 --------------------------                            --------------------------
 ! Name  Definition              Value          Derivative Info.                !
 --------------------------------------------------------------------------------
 ! R1    R(1,2)                  1.4046         calculate D2E/DX2 analytically  !
 ! R2    R(1,8)                  0.9838         calculate D2E/DX2 analytically  !
 ! R3    R(2,3)                  1.5227         calculate D2E/DX2 analytically  !
 ! R4    R(2,4)                  1.1024         calculate D2E/DX2 analytically  !
 ! R5    R(2,5)                  1.111          calculate D2E/DX2 analytically  !
 ! R6    R(3,6)                  1.0938         calculate D2E/DX2 analytically  !
 ! R7    R(3,7)                  1.0932         calculate D2E/DX2 analytically  !
 ! A1    A(2,1,8)              106.8483         calculate D2E/DX2 analytically  !
 ! A2    A(1,2,3)              111.9254         calculate D2E/DX2 analytically  !
 ! A3    A(1,2,4)              110.2224         calculate D2E/DX2 analytically  !
 ! A4    A(1,2,5)              110.254          calculate D2E/DX2 analytically  !
 ! A5    A(3,2,4)              110.3313         calculate D2E/DX2 analytically  !
 ! A6    A(3,2,5)              108.7397         calculate D2E/DX2 analytically  !
 ! A7    A(4,2,5)              105.1406         calculate D2E/DX2 analytically  !
 ! A8    A(2,3,6)              117.7996         calculate D2E/DX2 analytically  !
 ! A9    A(2,3,7)              118.461          calculate D2E/DX2 analytically  !
 ! A10   A(6,3,7)              116.2861         calculate D2E/DX2 analytically  !
 ! D1    D(8,1,2,3)           -170.4653         calculate D2E/DX2 analytically  !
 ! D2    D(8,1,2,4)            -47.2754         calculate D2E/DX2 analytically  !
 ! D3    D(8,1,2,5)             68.3586         calculate D2E/DX2 analytically  !
 ! D4    D(1,2,3,6)           -168.2691         calculate D2E/DX2 analytically  !
 ! D5    D(1,2,3,7)            -19.481          calculate D2E/DX2 analytically  !
 ! D6    D(4,2,3,6)             68.6026         calculate D2E/DX2 analytically  !
 ! D7    D(4,2,3,7)           -142.6093         calculate D2E/DX2 analytically  !
 ! D8    D(5,2,3,6)            -46.2218         calculate D2E/DX2 analytically  !
 ! D9    D(5,2,3,7)            102.5663         calculate D2E/DX2 analytically  !
 --------------------------------------------------------------------------------
 Trust Radius=3.00D-01 FncErr=1.00D-07 GrdErr=1.00D-06 EigMax=2.50D+02 EigMin=1.00D-04
 Number of steps in this run=    100 maximum allowed number of steps=    100.
 GradGradGradGradGradGradGradGradGradGradGradGradGradGradGradGradGradGrad

 Leave Link  103 at Wed May 22 18:33:39 2019, MaxMem=   671088640 cpu:               0.3 elap:               0.0
 (Enter /shared/centos7/gaussian/g16/l202.exe)
                          Input orientation:                          
 ---------------------------------------------------------------------
 Center     Atomic      Atomic             Coordinates (Angstroms)
 Number     Number       Type             X           Y           Z
 ---------------------------------------------------------------------
      1          8           0       -1.178256   -0.083927    1.009190
      2          6           0       -0.238770   -0.516084    0.058732
      3          6           0        0.294153   -1.906435    0.377445
      4          1           0       -0.681742   -0.497756   -0.950567
      5          1           0        0.616045    0.192062    0.013354
      6          1           0        1.166958   -2.258331   -0.179950
      7          1           0        0.186552   -2.284399    1.397537
      8          1           0       -1.584001    0.739383    0.655148
 ---------------------------------------------------------------------
                    Distance matrix (angstroms):
                    1          2          3          4          5
     1  O    0.000000
     2  C    1.404552   0.000000
     3  C    2.426650   1.522715   0.000000
     4  H    2.063597   1.102381   2.168033   0.000000
     5  H    2.070598   1.110963   2.154035   1.757624   0.000000
     6  H    3.412054   2.251324   1.093758   2.666677   2.518986
     7  H    2.618319   2.258370   1.093171   3.075650   2.869371
     8  H    0.983776   1.934311   3.256522   2.218763   2.356196
                    6          7          8
     6  H    0.000000
     7  H    1.857509   0.000000
     8  H    4.153487   3.581796   0.000000
 Stoichiometry    C2H5O(2)
 Framework group  C1[X(C2H5O)]
 Deg. of freedom    18
 Full point group                 C1      NOp   1
 Largest Abelian subgroup         C1      NOp   1
 Largest concise Abelian subgroup C1      NOp   1
                         Standard orientation:                         
 ---------------------------------------------------------------------
 Center     Atomic      Atomic             Coordinates (Angstroms)
 Number     Number       Type             X           Y           Z
 ---------------------------------------------------------------------
      1          8           0       -1.125290   -0.385140    0.006817
      2          6           0       -0.033366    0.498253    0.015945
      3          6           0        1.295309   -0.239032   -0.082519
      4          1           0       -0.127576    1.229032   -0.804014
      5          1           0       -0.036969    1.104578    0.946855
      6          1           0        2.209533    0.329009    0.111981
      7          1           0        1.321779   -1.301465    0.173523
      8          1           0       -1.936097    0.164643   -0.083434
 ---------------------------------------------------------------------
 Rotational constants (GHZ):          41.3981385           9.6133286           8.2271230
 Leave Link  202 at Wed May 22 18:33:39 2019, MaxMem=   671088640 cpu:               0.3 elap:               0.0
 (Enter /shared/centos7/gaussian/g16/l301.exe)
 Standard basis: CC-pVTZ (5D, 7F)
 Ernie: Thresh=  0.10000D-02 Tol=  0.10000D-05 Strict=F.
 Ernie:  9 primitive shells out of 118 were deleted.
 There are   180 symmetry adapted cartesian basis functions of A   symmetry.
 There are   160 symmetry adapted basis functions of A   symmetry.
   160 basis functions,   241 primitive gaussians,   180 cartesian basis functions
    13 alpha electrons       12 beta electrons
       nuclear repulsion energy        74.3251614909 Hartrees.
 IExCor= 4336 DFT=T Ex+Corr=M062X ExCW=0 ScaHFX=  0.540000
 ScaDFX=  1.000000  1.000000  1.000000  1.000000 ScalE2=  1.000000  1.000000
 IRadAn=      5 IRanWt=     -1 IRanGd=            0 ICorTp=0 IEmpDi=  4
 NAtoms=    8 NActive=    8 NUniq=    8 SFac= 1.00D+00 NAtFMM=   60 NAOKFM=F Big=F
 Integral buffers will be    131072 words long.
 Raffenetti 2 integral format.
 Two-electron integral symmetry is turned on.
 Leave Link  301 at Wed May 22 18:33:39 2019, MaxMem=   671088640 cpu:               1.2 elap:               0.1
 (Enter /shared/centos7/gaussian/g16/l302.exe)
 NPDir=0 NMtPBC=     1 NCelOv=     1 NCel=       1 NClECP=     1 NCelD=      1
         NCelK=      1 NCelE2=     1 NClLst=     1 CellRange=     0.0.
 One-electron integrals computed using PRISM.
 One-electron integral symmetry used in STVInt
 NBasis=   160 RedAO= T EigKep=  1.11D-03  NBF=   160
 NBsUse=   160 1.00D-06 EigRej= -1.00D+00 NBFU=   160
 Precomputing XC quadrature grid using
 IXCGrd= 4 IRadAn=           5 IRanWt=          -1 IRanGd=           0 AccXCQ= 0.00D+00.
 Generated NRdTot=       0 NPtTot=           0 NUsed=           0 NTot=          32
 NSgBfM=   180   180   180   180   180 MxSgAt=     8 MxSgA2=     8.
 Leave Link  302 at Wed May 22 18:33:39 2019, MaxMem=   671088640 cpu:               4.0 elap:               0.2
 (Enter /shared/centos7/gaussian/g16/l303.exe)
 DipDrv:  MaxL=1.
 Leave Link  303 at Wed May 22 18:33:39 2019, MaxMem=   671088640 cpu:               0.5 elap:               0.0
 (Enter /shared/centos7/gaussian/g16/l401.exe)
 ExpMin= 1.03D-01 ExpMax= 1.53D+04 ExpMxC= 5.22D+02 IAcc=3 IRadAn=         5 AccDes= 0.00D+00
 Harris functional with IExCor= 1009 and IRadAn=       5 diagonalized for initial guess.
 HarFok:  IExCor= 1009 AccDes= 0.00D+00 IRadAn=         5 IDoV= 1 UseB2=F ITyADJ=14
 ICtDFT=  3500011 ScaDFX=  1.000000  1.000000  1.000000  1.000000
 FoFCou: FMM=F IPFlag=           0 FMFlag=      100000 FMFlg1=           0
         NFxFlg=           0 DoJE=T BraDBF=F KetDBF=T FulRan=T
         wScrn=  0.000000 ICntrl=       500 IOpCl=  0 I1Cent=   200000004 NGrid=           0
         NMat0=    1 NMatS0=      1 NMatT0=    0 NMatD0=    1 NMtDS0=    0 NMtDT0=    0
 Petite list used in FoFCou.
 Harris En= -154.279702086825    
 JPrj=0 DoOrth=F DoCkMO=F.
 Initial guess <Sx>= 0.0000 <Sy>= 0.0000 <Sz>= 0.5000 <S**2>= 0.7500 S= 0.5000
 Leave Link  401 at Wed May 22 18:33:40 2019, MaxMem=   671088640 cpu:               9.5 elap:               0.5
 (Enter /shared/centos7/gaussian/g16/l502.exe)
 Keep R1 and R2 ints in memory in canonical form, NReq=186086596.
 FoFCou: FMM=F IPFlag=           0 FMFlag=           0 FMFlg1=           0
         NFxFlg=           0 DoJE=F BraDBF=F KetDBF=F FulRan=T
         wScrn=  0.000000 ICntrl=       600 IOpCl=  0 I1Cent=           0 NGrid=           0
         NMat0=    1 NMatS0=  12880 NMatT0=    0 NMatD0=    1 NMtDS0=    0 NMtDT0=    0
 Symmetry not used in FoFCou.
 Two-electron integral symmetry not used.
 UHF open shell SCF:
 Using DIIS extrapolation, IDIIS=  1040.
 NGot=   671088640 LenX=   505111240 LenY=   505078399
 Requested convergence on RMS density matrix=1.00D-08 within 900 cycles.
 Requested convergence on MAX density matrix=1.00D-06.
 Requested convergence on             energy=1.00D-06.
 No special actions if energy rises.
 Integral accuracy reduced to 1.0D-05 until final iterations.

 Cycle   1  Pass 0  IDiag  1:
 E= -154.247328810528    
 DIIS: error= 2.32D-02 at cycle   1 NSaved=   1.
 NSaved= 1 IEnMin= 1 EnMin= -154.247328810528     IErMin= 1 ErrMin= 2.32D-02
 ErrMax= 2.32D-02  0.00D+00 EMaxC= 1.00D-01 BMatC= 5.17D-01 BMatP= 5.17D-01
 IDIUse=3 WtCom= 7.68D-01 WtEn= 2.32D-01
 Coeff-Com:  0.100D+01
 Coeff-En:   0.100D+01
 Coeff:      0.100D+01
 Gap=     0.277 Goal=   None    Shift=    0.000
 Gap=     0.328 Goal=   None    Shift=    0.000
 GapD=    0.277 DampG=1.000 DampE=0.500 DampFc=0.5000 IDamp=-1.
 Damping current iteration by 5.00D-01
 RMSDP=2.93D-03 MaxDP=1.12D-01              OVMax= 1.41D-01

 Cycle   2  Pass 0  IDiag  1:
 E= -154.297526850828     Delta-E=       -0.050198040299 Rises=F Damp=T
 DIIS: error= 5.41D-03 at cycle   2 NSaved=   2.
 NSaved= 2 IEnMin= 2 EnMin= -154.297526850828     IErMin= 2 ErrMin= 5.41D-03
 ErrMax= 5.41D-03  0.00D+00 EMaxC= 1.00D-01 BMatC= 4.00D-02 BMatP= 5.17D-01
 IDIUse=3 WtCom= 9.46D-01 WtEn= 5.41D-02
 Coeff-Com: -0.435D-01 0.104D+01
 Coeff-En:   0.000D+00 0.100D+01
 Coeff:     -0.411D-01 0.104D+01
 Gap=     0.315 Goal=   None    Shift=    0.000
 Gap=     0.353 Goal=   None    Shift=    0.000
 RMSDP=5.81D-04 MaxDP=2.48D-02 DE=-5.02D-02 OVMax= 6.89D-02

 Cycle   3  Pass 0  IDiag  1:
 E= -154.348126715823     Delta-E=       -0.050599864995 Rises=F Damp=F
 DIIS: error= 2.92D-03 at cycle   3 NSaved=   3.
 NSaved= 3 IEnMin= 3 EnMin= -154.348126715823     IErMin= 3 ErrMin= 2.92D-03
 ErrMax= 2.92D-03  0.00D+00 EMaxC= 1.00D-01 BMatC= 8.52D-03 BMatP= 4.00D-02
 IDIUse=3 WtCom= 9.71D-01 WtEn= 2.92D-02
 Coeff-Com: -0.682D-01 0.286D+00 0.782D+00
 Coeff-En:   0.000D+00 0.000D+00 0.100D+01
 Coeff:     -0.662D-01 0.278D+00 0.788D+00
 Gap=     0.331 Goal=   None    Shift=    0.000
 Gap=     0.328 Goal=   None    Shift=    0.000
 RMSDP=2.17D-04 MaxDP=8.65D-03 DE=-5.06D-02 OVMax= 1.39D-02

 Cycle   4  Pass 0  IDiag  1:
 E= -154.349430184907     Delta-E=       -0.001303469084 Rises=F Damp=F
 DIIS: error= 1.70D-03 at cycle   4 NSaved=   4.
 NSaved= 4 IEnMin= 4 EnMin= -154.349430184907     IErMin= 4 ErrMin= 1.70D-03
 ErrMax= 1.70D-03  0.00D+00 EMaxC= 1.00D-01 BMatC= 1.95D-03 BMatP= 8.52D-03
 IDIUse=3 WtCom= 9.83D-01 WtEn= 1.70D-02
 Coeff-Com: -0.215D-01 0.419D-01 0.354D+00 0.626D+00
 Coeff-En:   0.000D+00 0.000D+00 0.419D-01 0.958D+00
 Coeff:     -0.211D-01 0.412D-01 0.348D+00 0.632D+00
 Gap=     0.325 Goal=   None    Shift=    0.000
 Gap=     0.337 Goal=   None    Shift=    0.000
 RMSDP=7.94D-05 MaxDP=2.97D-03 DE=-1.30D-03 OVMax= 8.61D-03

 Cycle   5  Pass 0  IDiag  1:
 E= -154.349868136776     Delta-E=       -0.000437951869 Rises=F Damp=F
 DIIS: error= 3.76D-04 at cycle   5 NSaved=   5.
 NSaved= 5 IEnMin= 5 EnMin= -154.349868136776     IErMin= 5 ErrMin= 3.76D-04
 ErrMax= 3.76D-04  0.00D+00 EMaxC= 1.00D-01 BMatC= 7.32D-05 BMatP= 1.95D-03
 IDIUse=3 WtCom= 9.96D-01 WtEn= 3.76D-03
 Coeff-Com:  0.405D-02-0.202D-01-0.357D-01 0.620D-01 0.990D+00
 Coeff-En:   0.000D+00 0.000D+00 0.000D+00 0.000D+00 0.100D+01
 Coeff:      0.404D-02-0.202D-01-0.355D-01 0.617D-01 0.990D+00
 Gap=     0.327 Goal=   None    Shift=    0.000
 Gap=     0.338 Goal=   None    Shift=    0.000
 RMSDP=3.43D-05 MaxDP=1.95D-03 DE=-4.38D-04 OVMax= 4.96D-03

 Cycle   6  Pass 0  IDiag  1:
 E= -154.349910578299     Delta-E=       -0.000042441523 Rises=F Damp=F
 DIIS: error= 1.74D-04 at cycle   6 NSaved=   6.
 NSaved= 6 IEnMin= 6 EnMin= -154.349910578299     IErMin= 6 ErrMin= 1.74D-04
 ErrMax= 1.74D-04  0.00D+00 EMaxC= 1.00D-01 BMatC= 9.99D-06 BMatP= 7.32D-05
 IDIUse=3 WtCom= 9.98D-01 WtEn= 1.74D-03
 Coeff-Com:  0.327D-02-0.747D-02-0.618D-01-0.103D+00 0.155D-01 0.115D+01
 Coeff-En:   0.000D+00 0.000D+00 0.000D+00 0.000D+00 0.000D+00 0.100D+01
 Coeff:      0.327D-02-0.745D-02-0.617D-01-0.103D+00 0.155D-01 0.115D+01
 Gap=     0.328 Goal=   None    Shift=    0.000
 Gap=     0.338 Goal=   None    Shift=    0.000
 RMSDP=1.97D-05 MaxDP=1.16D-03 DE=-4.24D-05 OVMax= 2.73D-03

 Cycle   7  Pass 0  IDiag  1:
 E= -154.349918184157     Delta-E=       -0.000007605858 Rises=F Damp=F
 DIIS: error= 4.53D-05 at cycle   7 NSaved=   7.
 NSaved= 7 IEnMin= 7 EnMin= -154.349918184157     IErMin= 7 ErrMin= 4.53D-05
 ErrMax= 4.53D-05  0.00D+00 EMaxC= 1.00D-01 BMatC= 1.44D-06 BMatP= 9.99D-06
 IDIUse=1 WtCom= 1.00D+00 WtEn= 0.00D+00
 Coeff-Com:  0.544D-03-0.516D-03-0.161D-01-0.374D-01-0.664D-01 0.396D+00
 Coeff-Com:  0.724D+00
 Coeff:      0.544D-03-0.516D-03-0.161D-01-0.374D-01-0.664D-01 0.396D+00
 Coeff:      0.724D+00
 Gap=     0.328 Goal=   None    Shift=    0.000
 Gap=     0.338 Goal=   None    Shift=    0.000
 RMSDP=3.23D-06 MaxDP=1.65D-04 DE=-7.61D-06 OVMax= 2.94D-04

 Initial convergence to 1.0D-05 achieved.  Increase integral accuracy.
 Cycle   8  Pass 1  IDiag  1:
 E= -154.349916868754     Delta-E=        0.000001315403 Rises=F Damp=F
 DIIS: error= 3.06D-05 at cycle   1 NSaved=   1.
 NSaved= 1 IEnMin= 1 EnMin= -154.349916868754     IErMin= 1 ErrMin= 3.06D-05
 ErrMax= 3.06D-05  0.00D+00 EMaxC= 1.00D-01 BMatC= 1.00D-06 BMatP= 1.00D-06
 IDIUse=1 WtCom= 1.00D+00 WtEn= 0.00D+00
 Coeff-Com:  0.100D+01
 Coeff:      0.100D+01
 Gap=     0.328 Goal=   None    Shift=    0.000
 Gap=     0.338 Goal=   None    Shift=    0.000
 RMSDP=3.23D-06 MaxDP=1.65D-04 DE= 1.32D-06 OVMax= 1.58D-04

 Cycle   9  Pass 1  IDiag  1:
 E= -154.349917035448     Delta-E=       -0.000000166694 Rises=F Damp=F
 DIIS: error= 1.36D-05 at cycle   2 NSaved=   2.
 NSaved= 2 IEnMin= 2 EnMin= -154.349917035448     IErMin= 2 ErrMin= 1.36D-05
 ErrMax= 1.36D-05  0.00D+00 EMaxC= 1.00D-01 BMatC= 8.04D-08 BMatP= 1.00D-06
 IDIUse=1 WtCom= 1.00D+00 WtEn= 0.00D+00
 Coeff-Com:  0.750D-01 0.925D+00
 Coeff:      0.750D-01 0.925D+00
 Gap=     0.328 Goal=   None    Shift=    0.000
 Gap=     0.338 Goal=   None    Shift=    0.000
 RMSDP=9.48D-07 MaxDP=2.60D-05 DE=-1.67D-07 OVMax= 5.61D-05

 Cycle  10  Pass 1  IDiag  1:
 E= -154.349917049652     Delta-E=       -0.000000014204 Rises=F Damp=F
 DIIS: error= 1.04D-05 at cycle   3 NSaved=   3.
 NSaved= 3 IEnMin= 3 EnMin= -154.349917049652     IErMin= 3 ErrMin= 1.04D-05
 ErrMax= 1.04D-05  0.00D+00 EMaxC= 1.00D-01 BMatC= 4.68D-08 BMatP= 8.04D-08
 IDIUse=1 WtCom= 1.00D+00 WtEn= 0.00D+00
 Coeff-Com: -0.445D-01 0.427D+00 0.618D+00
 Coeff:     -0.445D-01 0.427D+00 0.618D+00
 Gap=     0.328 Goal=   None    Shift=    0.000
 Gap=     0.338 Goal=   None    Shift=    0.000
 RMSDP=3.85D-07 MaxDP=1.74D-05 DE=-1.42D-08 OVMax= 2.65D-05

 Cycle  11  Pass 1  IDiag  1:
 E= -154.349917060525     Delta-E=       -0.000000010872 Rises=F Damp=F
 DIIS: error= 1.32D-06 at cycle   4 NSaved=   4.
 NSaved= 4 IEnMin= 4 EnMin= -154.349917060525     IErMin= 4 ErrMin= 1.32D-06
 ErrMax= 1.32D-06  0.00D+00 EMaxC= 1.00D-01 BMatC= 1.50D-09 BMatP= 4.68D-08
 IDIUse=1 WtCom= 1.00D+00 WtEn= 0.00D+00
 Coeff-Com: -0.922D-02-0.702D-02 0.570D-01 0.959D+00
 Coeff:     -0.922D-02-0.702D-02 0.570D-01 0.959D+00
 Gap=     0.328 Goal=   None    Shift=    0.000
 Gap=     0.338 Goal=   None    Shift=    0.000
 RMSDP=1.80D-07 MaxDP=9.82D-06 DE=-1.09D-08 OVMax= 1.49D-05

 Cycle  12  Pass 1  IDiag  1:
 E= -154.349917061240     Delta-E=       -0.000000000715 Rises=F Damp=F
 DIIS: error= 9.78D-07 at cycle   5 NSaved=   5.
 NSaved= 5 IEnMin= 5 EnMin= -154.349917061240     IErMin= 5 ErrMin= 9.78D-07
 ErrMax= 9.78D-07  0.00D+00 EMaxC= 1.00D-01 BMatC= 6.97D-10 BMatP= 1.50D-09
 IDIUse=1 WtCom= 1.00D+00 WtEn= 0.00D+00
 Coeff-Com:  0.806D-02-0.125D+00-0.148D+00 0.453D+00 0.813D+00
 Coeff:      0.806D-02-0.125D+00-0.148D+00 0.453D+00 0.813D+00
 Gap=     0.328 Goal=   None    Shift=    0.000
 Gap=     0.338 Goal=   None    Shift=    0.000
 RMSDP=1.11D-07 MaxDP=4.63D-06 DE=-7.15D-10 OVMax= 8.50D-06

 Cycle  13  Pass 1  IDiag  1:
 E= -154.349917061500     Delta-E=       -0.000000000260 Rises=F Damp=F
 DIIS: error= 2.55D-07 at cycle   6 NSaved=   6.
 NSaved= 6 IEnMin= 6 EnMin= -154.349917061500     IErMin= 6 ErrMin= 2.55D-07
 ErrMax= 2.55D-07  0.00D+00 EMaxC= 1.00D-01 BMatC= 4.23D-11 BMatP= 6.97D-10
 IDIUse=1 WtCom= 1.00D+00 WtEn= 0.00D+00
 Coeff-Com:  0.280D-02-0.254D-01-0.376D-01-0.228D-01 0.203D+00 0.880D+00
 Coeff:      0.280D-02-0.254D-01-0.376D-01-0.228D-01 0.203D+00 0.880D+00
 Gap=     0.328 Goal=   None    Shift=    0.000
 Gap=     0.338 Goal=   None    Shift=    0.000
 RMSDP=2.83D-08 MaxDP=1.23D-06 DE=-2.60D-10 OVMax= 2.26D-06

 Cycle  14  Pass 1  IDiag  1:
 E= -154.349917061516     Delta-E=       -0.000000000017 Rises=F Damp=F
 DIIS: error= 5.53D-08 at cycle   7 NSaved=   7.
 NSaved= 7 IEnMin= 7 EnMin= -154.349917061516     IErMin= 7 ErrMin= 5.53D-08
 ErrMax= 5.53D-08  0.00D+00 EMaxC= 1.00D-01 BMatC= 2.46D-12 BMatP= 4.23D-11
 IDIUse=1 WtCom= 1.00D+00 WtEn= 0.00D+00
 Coeff-Com: -0.428D-03 0.907D-02 0.875D-02-0.470D-01-0.543D-01 0.108D+00
 Coeff-Com:  0.976D+00
 Coeff:     -0.428D-03 0.907D-02 0.875D-02-0.470D-01-0.543D-01 0.108D+00
 Coeff:      0.976D+00
 Gap=     0.328 Goal=   None    Shift=    0.000
 Gap=     0.338 Goal=   None    Shift=    0.000
 RMSDP=1.01D-08 MaxDP=4.95D-07 DE=-1.65D-11 OVMax= 7.10D-07

 Cycle  15  Pass 1  IDiag  1:
 E= -154.349917061518     Delta-E=       -0.000000000002 Rises=F Damp=F
 DIIS: error= 1.88D-08 at cycle   8 NSaved=   8.
 NSaved= 8 IEnMin= 8 EnMin= -154.349917061518     IErMin= 8 ErrMin= 1.88D-08
 ErrMax= 1.88D-08  0.00D+00 EMaxC= 1.00D-01 BMatC= 2.51D-13 BMatP= 2.46D-12
 IDIUse=1 WtCom= 1.00D+00 WtEn= 0.00D+00
 Coeff-Com: -0.272D-03 0.379D-02 0.419D-02-0.111D-01-0.246D-01-0.210D-01
 Coeff-Com:  0.229D+00 0.820D+00
 Coeff:     -0.272D-03 0.379D-02 0.419D-02-0.111D-01-0.246D-01-0.210D-01
 Coeff:      0.229D+00 0.820D+00
 Gap=     0.328 Goal=   None    Shift=    0.000
 Gap=     0.338 Goal=   None    Shift=    0.000
 RMSDP=2.34D-09 MaxDP=8.74D-08 DE=-1.59D-12 OVMax= 2.18D-07

 SCF Done:  E(UM062X) =  -154.349917062     A.U. after   15 cycles
            NFock= 15  Conv=0.23D-08     -V/T= 2.0064
 <Sx>= 0.0000 <Sy>= 0.0000 <Sz>= 0.5000 <S**2>= 0.7552 S= 0.5026
 <L.S>= 0.000000000000E+00
 KE= 1.533736291770D+02 PE=-5.095273327828D+02 EE= 1.274786250534D+02
 Annihilation of the first spin contaminant:
 S**2 before annihilation     0.7552,   after     0.7500
 Leave Link  502 at Wed May 22 18:33:55 2019, MaxMem=   671088640 cpu:             229.9 elap:              14.9
 (Enter /shared/centos7/gaussian/g16/l801.exe)
 DoSCS=F DFT=T ScalE2(SS,OS)=  1.000000  1.000000
 Range of M.O.s used for correlation:     1   160
 NBasis=   160 NAE=    13 NBE=    12 NFC=     0 NFV=     0
 NROrb=    160 NOA=    13 NOB=    12 NVA=   147 NVB=   148
 Leave Link  801 at Wed May 22 18:33:55 2019, MaxMem=   671088640 cpu:               0.6 elap:               0.1
 (Enter /shared/centos7/gaussian/g16/l1101.exe)
 Using compressed storage, NAtomX=     8.
 Will process      9 centers per pass.
 Leave Link 1101 at Wed May 22 18:33:55 2019, MaxMem=   671088640 cpu:               4.6 elap:               0.3
 (Enter /shared/centos7/gaussian/g16/l1102.exe)
 Symmetrizing basis deriv contribution to polar:
 IMax=3 JMax=2 DiffMx= 0.00D+00
 Leave Link 1102 at Wed May 22 18:33:55 2019, MaxMem=   671088640 cpu:               1.9 elap:               0.1
 (Enter /shared/centos7/gaussian/g16/l1110.exe)
 Forming Gx(P) for the SCF density, NAtomX=     8.
 Integral derivatives from FoFJK, PRISM(SPDF).
 Do as many integral derivatives as possible in FoFJK.
 G2DrvN: MDV=     671087928.
 G2DrvN: will do     9 centers at a time, making    1 passes.
 Calling FoFCou, ICntrl=  3107 FMM=F I1Cent=   0 AccDes= 0.00D+00.
 FoFJK:  IHMeth= 1 ICntrl=    3107 DoSepK=F KAlg= 0 I1Cent=           0 FoldK=F
 IRaf=         0 NMat=       1 IRICut=       1 DoRegI=T DoRafI=F ISym2E= 0 IDoP0=0 IntGTp=1.
 FoFCou: FMM=F IPFlag=           0 FMFlag=      100000 FMFlg1=           0
         NFxFlg=           0 DoJE=F BraDBF=F KetDBF=F FulRan=T
         wScrn=  0.000000 ICntrl=      3107 IOpCl=  1 I1Cent=           0 NGrid=           0
         NMat0=    1 NMatS0=      1 NMatT0=    0 NMatD0=    1 NMtDS0=    0 NMtDT0=    0
 Symmetry not used in FoFCou.
 End of G2Drv F.D. properties file   721 does not exist.
 End of G2Drv F.D. properties file   722 does not exist.
 End of G2Drv F.D. properties file   788 does not exist.
 Leave Link 1110 at Wed May 22 18:34:18 2019, MaxMem=   671088640 cpu:             464.7 elap:              23.3
 (Enter /shared/centos7/gaussian/g16/l1002.exe)
 Minotr:  UHF open shell wavefunction.
          IDoAtm=11111111
          Direct CPHF calculation.
          Differentiating once with respect to nuclear coordinates.
          Requested convergence is 1.0D-08 RMS, and 1.0D-07 maximum.
          Secondary convergence is 1.0D-12 RMS, and 1.0D-12 maximum.
          NewPWx=T KeepS1=F KeepF1=F KeepIn=T MapXYZ=F SortEE=F KeepMc=T.
         2371 words used for storage of precomputed grid.
 Keep R1 and R2 ints in memory in canonical form, NReq=186024337.
 FoFCou: FMM=F IPFlag=           0 FMFlag=           0 FMFlg1=           0
         NFxFlg=           0 DoJE=F BraDBF=F KetDBF=F FulRan=T
         wScrn=  0.000000 ICntrl=       600 IOpCl=  0 I1Cent=           0 NGrid=           0
         NMat0=    1 NMatS0=  12880 NMatT0=    0 NMatD0=    1 NMtDS0=    0 NMtDT0=    0
 Symmetry not used in FoFCou.
 Two-electron integral symmetry not used.
          MDV=     671088640 using IRadAn=       1.
          Solving linear equations simultaneously, MaxMat=       0.
          There are    27 degrees of freedom in the 1st order CPHF.  IDoFFX=6 NUNeed=     0.
     21 vectors produced by pass  0 Test12= 1.37D-14 3.70D-09 XBig12= 1.23D-01 1.24D-01.
 AX will form    21 AO Fock derivatives at one time.
     21 vectors produced by pass  1 Test12= 1.37D-14 3.70D-09 XBig12= 1.22D-02 2.01D-02.
     21 vectors produced by pass  2 Test12= 1.37D-14 3.70D-09 XBig12= 4.03D-04 4.92D-03.
     21 vectors produced by pass  3 Test12= 1.37D-14 3.70D-09 XBig12= 4.30D-06 5.62D-04.
     21 vectors produced by pass  4 Test12= 1.37D-14 3.70D-09 XBig12= 6.01D-08 4.64D-05.
     21 vectors produced by pass  5 Test12= 1.37D-14 3.70D-09 XBig12= 6.00D-10 4.95D-06.
     21 vectors produced by pass  6 Test12= 1.37D-14 3.70D-09 XBig12= 5.84D-12 3.53D-07.
      9 vectors produced by pass  7 Test12= 1.37D-14 3.70D-09 XBig12= 3.90D-14 2.39D-08.
 InvSVY:  IOpt=1 It=  1 EMax= 8.88D-16
 Solved reduced A of dimension   156 with    21 vectors.
 End of Minotr F.D. properties file   721 does not exist.
 End of Minotr F.D. properties file   722 does not exist.
 End of Minotr F.D. properties file   788 does not exist.
 Leave Link 1002 at Wed May 22 18:34:55 2019, MaxMem=   671088640 cpu:             738.1 elap:              36.9
 (Enter /shared/centos7/gaussian/g16/l601.exe)
 Copying SCF densities to generalized density rwf, IOpCl= 1 IROHF=0.

 **********************************************************************

            Population analysis using the SCF density.

 **********************************************************************

 Orbital symmetries:
 Alpha Orbitals:
       Occupied  (A) (A) (A) (A) (A) (A) (A) (A) (A) (A) (A) (A)
                 (A)
       Virtual   (A) (A) (A) (A) (A) (A) (A) (A) (A) (A) (A) (A)
                 (A) (A) (A) (A) (A) (A) (A) (A) (A) (A) (A) (A)
                 (A) (A) (A) (A) (A) (A) (A) (A) (A) (A) (A) (A)
                 (A) (A) (A) (A) (A) (A) (A) (A) (A) (A) (A) (A)
                 (A) (A) (A) (A) (A) (A) (A) (A) (A) (A) (A) (A)
                 (A) (A) (A) (A) (A) (A) (A) (A) (A) (A) (A) (A)
                 (A) (A) (A) (A) (A) (A) (A) (A) (A) (A) (A) (A)
                 (A) (A) (A) (A) (A) (A) (A) (A) (A) (A) (A) (A)
                 (A) (A) (A) (A) (A) (A) (A) (A) (A) (A) (A) (A)
                 (A) (A) (A) (A) (A) (A) (A) (A) (A) (A) (A) (A)
                 (A) (A) (A) (A) (A) (A) (A) (A) (A) (A) (A) (A)
                 (A) (A) (A) (A) (A) (A) (A) (A) (A) (A) (A) (A)
                 (A) (A) (A)
 Beta  Orbitals:
       Occupied  (A) (A) (A) (A) (A) (A) (A) (A) (A) (A) (A) (A)
       Virtual   (A) (A) (A) (A) (A) (A) (A) (A) (A) (A) (A) (A)
                 (A) (A) (A) (A) (A) (A) (A) (A) (A) (A) (A) (A)
                 (A) (A) (A) (A) (A) (A) (A) (A) (A) (A) (A) (A)
                 (A) (A) (A) (A) (A) (A) (A) (A) (A) (A) (A) (A)
                 (A) (A) (A) (A) (A) (A) (A) (A) (A) (A) (A) (A)
                 (A) (A) (A) (A) (A) (A) (A) (A) (A) (A) (A) (A)
                 (A) (A) (A) (A) (A) (A) (A) (A) (A) (A) (A) (A)
                 (A) (A) (A) (A) (A) (A) (A) (A) (A) (A) (A) (A)
                 (A) (A) (A) (A) (A) (A) (A) (A) (A) (A) (A) (A)
                 (A) (A) (A) (A) (A) (A) (A) (A) (A) (A) (A) (A)
                 (A) (A) (A) (A) (A) (A) (A) (A) (A) (A) (A) (A)
                 (A) (A) (A) (A) (A) (A) (A) (A) (A) (A) (A) (A)
                 (A) (A) (A) (A)
 The electronic state is 2-A.
 Alpha  occ. eigenvalues --  -19.62375 -10.59354 -10.54860  -1.14656  -0.83776
 Alpha  occ. eigenvalues --   -0.69155  -0.59893  -0.53140  -0.48960  -0.46813
 Alpha  occ. eigenvalues --   -0.41057  -0.36261  -0.26842
 Alpha virt. eigenvalues --    0.05941   0.10272   0.12459   0.14214   0.15226
 Alpha virt. eigenvalues --    0.20555   0.22981   0.31091   0.36832   0.37671
 Alpha virt. eigenvalues --    0.38763   0.39919   0.42003   0.43925   0.47602
 Alpha virt. eigenvalues --    0.49452   0.51135   0.52016   0.54328   0.57674
 Alpha virt. eigenvalues --    0.58874   0.62117   0.70028   0.71769   0.73668
 Alpha virt. eigenvalues --    0.79717   0.85418   0.90156   0.95071   0.98840
 Alpha virt. eigenvalues --    1.01012   1.02475   1.06520   1.08391   1.11709
 Alpha virt. eigenvalues --    1.12351   1.17017   1.20947   1.24692   1.26753
 Alpha virt. eigenvalues --    1.29257   1.33962   1.36310   1.36776   1.42037
 Alpha virt. eigenvalues --    1.42488   1.51643   1.57526   1.64239   1.84744
 Alpha virt. eigenvalues --    1.98338   2.01393   2.09860   2.12336   2.18611
 Alpha virt. eigenvalues --    2.20905   2.22298   2.30161   2.32636   2.39133
 Alpha virt. eigenvalues --    2.52231   2.54470   2.59977   2.63718   2.70620
 Alpha virt. eigenvalues --    2.76327   2.81416   2.85263   2.88221   2.91179
 Alpha virt. eigenvalues --    2.93179   2.94865   2.96089   2.98515   3.00583
 Alpha virt. eigenvalues --    3.03745   3.08848   3.09746   3.12651   3.15914
 Alpha virt. eigenvalues --    3.20690   3.29039   3.30412   3.32451   3.37072
 Alpha virt. eigenvalues --    3.41222   3.42154   3.46941   3.48033   3.51958
 Alpha virt. eigenvalues --    3.55524   3.61420   3.63292   3.69342   3.71631
 Alpha virt. eigenvalues --    3.78178   3.80011   3.81898   3.85811   3.86165
 Alpha virt. eigenvalues --    3.91048   3.91705   3.96070   3.97936   3.99943
 Alpha virt. eigenvalues --    4.04647   4.07331   4.10991   4.15602   4.23969
 Alpha virt. eigenvalues --    4.29574   4.34185   4.43044   4.48751   4.60989
 Alpha virt. eigenvalues --    4.62725   4.67837   4.72998   4.74162   4.76907
 Alpha virt. eigenvalues --    4.87582   4.92659   4.98820   5.01737   5.09620
 Alpha virt. eigenvalues --    5.15914   5.24051   5.30713   5.35278   5.40450
 Alpha virt. eigenvalues --    5.54996   5.64373   5.79595   5.80426   5.95191
 Alpha virt. eigenvalues --    6.11281   6.41039   6.58035   6.63309   6.72971
 Alpha virt. eigenvalues --    6.86645   6.92948   7.10210   7.32798  11.16853
 Alpha virt. eigenvalues --   11.62076  12.43196
  Beta  occ. eigenvalues --  -19.62378 -10.59412 -10.54068  -1.14641  -0.81614
  Beta  occ. eigenvalues --   -0.66631  -0.59597  -0.52033  -0.48323  -0.45714
  Beta  occ. eigenvalues --   -0.40420  -0.35328
  Beta virt. eigenvalues --   -0.01529   0.05698   0.09911   0.12299   0.13411
  Beta virt. eigenvalues --    0.15303   0.20311   0.23033   0.29977   0.35650
  Beta virt. eigenvalues --    0.37529   0.38997   0.39530   0.41899   0.43555
  Beta virt. eigenvalues --    0.47386   0.49578   0.51595   0.52517   0.54468
  Beta virt. eigenvalues --    0.58321   0.58885   0.62993   0.69740   0.71383
  Beta virt. eigenvalues --    0.73933   0.79446   0.85001   0.89762   0.94540
  Beta virt. eigenvalues --    0.98594   1.00338   1.02447   1.06290   1.08220
  Beta virt. eigenvalues --    1.11948   1.12553   1.17394   1.20832   1.24600
  Beta virt. eigenvalues --    1.27060   1.29530   1.33481   1.36739   1.37290
  Beta virt. eigenvalues --    1.42069   1.42569   1.53510   1.57320   1.65114
  Beta virt. eigenvalues --    1.85369   1.98842   2.01543   2.10137   2.12768
  Beta virt. eigenvalues --    2.20187   2.23434   2.25365   2.30952   2.33621
  Beta virt. eigenvalues --    2.39779   2.53695   2.55834   2.63255   2.66372
  Beta virt. eigenvalues --    2.73295   2.79291   2.82466   2.87883   2.90216
  Beta virt. eigenvalues --    2.93604   2.94420   2.96622   2.97176   3.02128
  Beta virt. eigenvalues --    3.04595   3.06759   3.11630   3.12915   3.13501
  Beta virt. eigenvalues --    3.17014   3.21971   3.29746   3.31131   3.34108
  Beta virt. eigenvalues --    3.37865   3.42147   3.42951   3.47094   3.48762
  Beta virt. eigenvalues --    3.52630   3.55956   3.62047   3.64259   3.69766
  Beta virt. eigenvalues --    3.72472   3.78856   3.81220   3.82281   3.86317
  Beta virt. eigenvalues --    3.87234   3.91601   3.92510   3.96894   3.98588
  Beta virt. eigenvalues --    4.00493   4.06012   4.07842   4.13015   4.15902
  Beta virt. eigenvalues --    4.25257   4.30905   4.34643   4.43709   4.51012
  Beta virt. eigenvalues --    4.61585   4.64799   4.68808   4.75363   4.76244
  Beta virt. eigenvalues --    4.79508   4.90351   4.94636   5.00480   5.03969
  Beta virt. eigenvalues --    5.12126   5.18941   5.25500   5.33721   5.39382
  Beta virt. eigenvalues --    5.42516   5.55686   5.71432   5.79593   5.81473
  Beta virt. eigenvalues --    5.95485   6.11443   6.41070   6.58155   6.63325
  Beta virt. eigenvalues --    6.72986   6.86660   6.92883   7.10245   7.32828
  Beta virt. eigenvalues --   11.17188  11.62889  12.43778
          Condensed to atoms (all electrons):
               1          2          3          4          5          6
     1  O    7.864961   0.340515  -0.044346  -0.054101  -0.055432   0.002579
     2  C    0.340515   4.635301   0.303384   0.396464   0.403412  -0.038360
     3  C   -0.044346   0.303384   5.439929  -0.041656  -0.065199   0.382424
     4  H   -0.054101   0.396464  -0.041656   0.720584  -0.091805  -0.000252
     5  H   -0.055432   0.403412  -0.065199  -0.091805   0.739463   0.001213
     6  H    0.002579  -0.038360   0.382424  -0.000252   0.001213   0.538453
     7  H    0.004221  -0.035989   0.381231   0.006841   0.000265  -0.033348
     8  H    0.327406  -0.036165   0.009207  -0.010530  -0.004833  -0.000604
               7          8
     1  O    0.004221   0.327406
     2  C   -0.035989  -0.036165
     3  C    0.381231   0.009207
     4  H    0.006841  -0.010530
     5  H    0.000265  -0.004833
     6  H   -0.033348  -0.000604
     7  H    0.508834  -0.000521
     8  H   -0.000521   0.460439
          Atomic-Atomic Spin Densities.
               1          2          3          4          5          6
     1  O    0.000542   0.000696   0.002950   0.000187  -0.000965  -0.000118
     2  C    0.000696  -0.062666  -0.039681   0.013095   0.015048   0.002589
     3  C    0.002950  -0.039681   1.156048  -0.023120  -0.029411  -0.003792
     4  H    0.000187   0.013095  -0.023120   0.061033  -0.020872   0.001391
     5  H   -0.000965   0.015048  -0.029411  -0.020872   0.086771  -0.001745
     6  H   -0.000118   0.002589  -0.003792   0.001391  -0.001745  -0.039712
     7  H    0.000230   0.004428  -0.006678   0.000280  -0.001161   0.003713
     8  H   -0.000517   0.000427   0.000138   0.000828  -0.000130   0.000027
               7          8
     1  O    0.000230  -0.000517
     2  C    0.004428   0.000427
     3  C   -0.006678   0.000138
     4  H    0.000280   0.000828
     5  H   -0.001161  -0.000130
     6  H    0.003713   0.000027
     7  H   -0.036162   0.000020
     8  H    0.000020  -0.001570
 Mulliken charges and spin densities:
               1          2
     1  O   -0.385802   0.003005
     2  C    0.031439  -0.066063
     3  C   -0.364974   1.056454
     4  H    0.074455   0.032823
     5  H    0.072916   0.047535
     6  H    0.147896  -0.037647
     7  H    0.168468  -0.035330
     8  H    0.255602  -0.000777
 Sum of Mulliken charges =  -0.00000   1.00000
 Mulliken charges and spin densities with hydrogens summed into heavy atoms:
               1          2
     1  O   -0.130200   0.002228
     2  C    0.178810   0.014295
     3  C   -0.048610   0.983477
 APT charges:
               1
     1  O   -0.654156
     2  C   -0.498280
     3  C   -0.782246
     4  H    0.287057
     5  H    0.279441
     6  H    0.433609
     7  H    0.353655
     8  H    0.580921
 Sum of APT charges =  -0.00000
 APT charges with hydrogens summed into heavy atoms:
               1
     1  O   -0.073235
     2  C    0.068217
     3  C    0.005018
 Electronic spatial extent (au):  <R**2>=            184.1531
 Charge=             -0.0000 electrons
 Dipole moment (field-independent basis, Debye):
    X=             -0.3643    Y=              1.7214    Z=              0.1960  Tot=              1.7704
 Quadrupole moment (field-independent basis, Debye-Ang):
   XX=            -16.3506   YY=            -19.4279   ZZ=            -20.6827
   XY=             -2.0331   XZ=              0.9906   YZ=             -0.3101
 Traceless Quadrupole moment (field-independent basis, Debye-Ang):
   XX=              2.4698   YY=             -0.6075   ZZ=             -1.8623
   XY=             -2.0331   XZ=              0.9906   YZ=             -0.3101
 Octapole moment (field-independent basis, Debye-Ang**2):
  XXX=            -14.6946  YYY=             -1.4637  ZZZ=              0.6611  XYY=             -0.7638
  XXY=              3.3941  XXZ=              0.4537  XZZ=             -3.2727  YZZ=              0.7859
  YYZ=              0.3492  XYZ=             -0.1395
 Hexadecapole moment (field-independent basis, Debye-Ang**3):
 XXXX=           -131.1381 YYYY=            -53.7371 ZZZZ=            -29.0373 XXXY=             -0.1818
 XXXZ=              4.3477 YYYX=             -0.5820 YYYZ=             -1.1398 ZZZX=              1.2392
 ZZZY=             -0.2869 XXYY=            -35.1818 XXZZ=            -34.2894 YYZZ=            -13.6770
 XXYZ=             -0.4450 YYXZ=              0.8963 ZZXY=              0.5439
 N-N= 7.432516149093D+01 E-N=-5.095273303264D+02  KE= 1.533736291770D+02
  Exact polarizability:   0.000   0.000   0.000   0.000   0.000   0.000
 Approx polarizability:  35.183  -1.158  33.079   0.462  -0.141  27.265
                          Isotropic Fermi Contact Couplings
        Atom                 a.u.       MegaHertz       Gauss      10(-4) cm-1
     1  O(17)             -0.00212       1.28428       0.45826       0.42839
     2  C(13)             -0.03100     -34.84659     -12.43413     -11.62357
     3  C(13)              0.24814     278.95657      99.53864      93.04990
     4  H(1)               0.01719      76.82284      27.41230      25.62534
     5  H(1)               0.02320     103.68772      36.99836      34.58650
     6  H(1)              -0.01324     -59.16533     -21.11166     -19.73543
     7  H(1)              -0.01346     -60.16774     -21.46935     -20.06980
     8  H(1)              -0.00055      -2.46926      -0.88109      -0.82366
 --------------------------------------------------------
       Center         ----  Spin Dipole Couplings  ----
                      3XX-RR        3YY-RR        3ZZ-RR
 --------------------------------------------------------
     1   Atom        0.014505     -0.004274     -0.010231
     2   Atom        0.003636     -0.014561      0.010925
     3   Atom       -0.533343     -0.528474      1.061817
     4   Atom        0.002929      0.005190     -0.008119
     5   Atom        0.001814      0.000627     -0.002441
     6   Atom        0.032531     -0.028668     -0.003863
     7   Atom       -0.069400      0.069832     -0.000432
     8   Atom        0.006954     -0.003557     -0.003396
 --------------------------------------------------------
                        XY            XZ            YZ
 --------------------------------------------------------
     1   Atom        0.005487      0.000800      0.000009
     2   Atom       -0.005607     -0.012266      0.004130
     3   Atom       -0.005478     -0.110241      0.123259
     4   Atom       -0.014111      0.005252     -0.006453
     5   Atom       -0.009363     -0.005551      0.009675
     6   Atom        0.063732      0.012671      0.014637
     7   Atom       -0.003063     -0.003196     -0.022595
     8   Atom       -0.000129     -0.000281      0.000268
 --------------------------------------------------------


 ---------------------------------------------------------------------------------
              Anisotropic Spin Dipole Couplings in Principal Axis System
 ---------------------------------------------------------------------------------

       Atom             a.u.   MegaHertz   Gauss  10(-4) cm-1        Axes

              Baa    -0.0103     0.743     0.265     0.248 -0.0400  0.0351  0.9986
     1 O(17)  Bbb    -0.0058     0.416     0.148     0.139 -0.2596  0.9647 -0.0443
              Bcc     0.0160    -1.159    -0.413    -0.387  0.9649  0.2610  0.0295
 
              Baa    -0.0162    -2.170    -0.774    -0.724  0.2535  0.9668 -0.0326
     2 C(13)  Bbb    -0.0051    -0.691    -0.247    -0.230  0.7597 -0.1781  0.6255
              Bcc     0.0213     2.861     1.021     0.954 -0.5989  0.1833  0.7796
 
              Baa    -0.5428   -72.834   -25.989   -24.295  0.8460 -0.5241  0.0984
     3 C(13)  Bbb    -0.5361   -71.939   -25.670   -23.996  0.5288  0.8482 -0.0289
              Bcc     1.0789   144.773    51.659    48.291 -0.0683  0.0765  0.9947
 
              Baa    -0.0108    -5.788    -2.065    -1.931  0.2505  0.5429  0.8016
     4 H(1)   Bbb    -0.0098    -5.212    -1.860    -1.738  0.7191  0.4500 -0.5295
              Bcc     0.0206    11.000     3.925     3.669 -0.6482  0.7091 -0.2777
 
              Baa    -0.0112    -5.965    -2.128    -1.990  0.2458  0.7236 -0.6450
     5 H(1)   Bbb    -0.0055    -2.939    -1.049    -0.980  0.7709  0.2575  0.5826
              Bcc     0.0167     8.904     3.177     2.970 -0.5877  0.6404  0.4945
 
              Baa    -0.0693   -36.960   -13.188   -12.328 -0.5205  0.8492 -0.0892
     6 H(1)   Bbb    -0.0076    -4.064    -1.450    -1.356 -0.2373 -0.0435  0.9705
              Bcc     0.0769    41.024    14.638    13.684  0.8202  0.5263  0.2241
 
              Baa    -0.0697   -37.175   -13.265   -12.400  0.9979  0.0310  0.0562
     7 H(1)   Bbb    -0.0068    -3.641    -1.299    -1.214 -0.0626  0.2799  0.9580
              Bcc     0.0765    40.816    14.564    13.615 -0.0140  0.9595 -0.2812
 
              Baa    -0.0038    -2.005    -0.715    -0.669 -0.0061  0.8004 -0.5994
     8 H(1)   Bbb    -0.0032    -1.711    -0.610    -0.571  0.0297  0.5993  0.8000
              Bcc     0.0070     3.715     1.326     1.239  0.9995 -0.0129 -0.0274
 

 ---------------------------------------------------------------------------------

 No NMR shielding tensors so no spin-rotation constants.
 Leave Link  601 at Wed May 22 18:34:56 2019, MaxMem=   671088640 cpu:               7.1 elap:               0.4
 (Enter /shared/centos7/gaussian/g16/l701.exe)
 SCFChk:  SCF convergence  2.34D-09 required  1.00D-08
 ... and contract with generalized density number  0.
 Compute integral second derivatives.
 Entering OneElI...
 Calculate overlap and kinetic energy integrals
    NBasis = 180  MinDer = 2  MaxDer = 2
 Requested accuracy = 0.1000D-12
 PrmmSu-InSpLW:  IPartL=    0 NPrtUS=   20 NPrtUL=    1 DoSpLW=F IThBeg=    0 IThEnd=   19 NThAct=   20.
 PrsmSu:  NPrtUS=  20 ThrOK=T IAlg=1 NPAlg=1 LenDen=           0 ISkipM=0 DoSpLW=F IThBeg=    0 IThEnd=   19.
 Prism:   IPart=     0 DynPar=F LinDyn=F Incr=           1.
 PRISM was handed    33498316 working-precision words and  1830 shell-pairs
 PRISM was handed    33498316 working-precision words and  1830 shell-pairs
 PRISM was handed    33498316 working-precision words and  1830 shell-pairs
 PRISM was handed    33498316 working-precision words and  1830 shell-pairs
 PRISM was handed    33498316 working-precision words and  1830 shell-pairs
 PRISM was handed    33498316 working-precision words and  1830 shell-pairs
 PRISM was handed    33498316 working-precision words and  1830 shell-pairs
 PRISM was handed    33498316 working-precision words and  1830 shell-pairs
 PRISM was handed    33498316 working-precision words and  1830 shell-pairs
 PRISM was handed    33498316 working-precision words and  1830 shell-pairs
 PRISM was handed    33498316 working-precision words and  1830 shell-pairs
 PRISM was handed    33498316 working-precision words and  1830 shell-pairs
 PRISM was handed    33498316 working-precision words and  1830 shell-pairs
 PRISM was handed    33498316 working-precision words and  1830 shell-pairs
 PRISM was handed    33498316 working-precision words and  1830 shell-pairs
 PRISM was handed    33498316 working-precision words and  1830 shell-pairs
 PRISM was handed    33498316 working-precision words and  1830 shell-pairs
 PRISM was handed    33498316 working-precision words and  1830 shell-pairs
 PRISM was handed    33498316 working-precision words and  1830 shell-pairs
 PRISM was handed    33498316 working-precision words and  1830 shell-pairs
 IPart= 16 NShTot=          73 NBatch=          20 AvBLen=         3.7
 IPart= 15 NShTot=          78 NBatch=          20 AvBLen=         3.9
 IPart= 17 NShTot=          73 NBatch=          20 AvBLen=         3.7
 IPart= 18 NShTot=          73 NBatch=          20 AvBLen=         3.7
 IPart= 19 NShTot=          73 NBatch=          20 AvBLen=         3.7
 IPart=  0 NShTot=         131 NBatch=          59 AvBLen=         2.2
 IPart= 12 NShTot=          84 NBatch=          21 AvBLen=         4.0
 IPart=  1 NShTot=         120 NBatch=          48 AvBLen=         2.5
 IPart=  2 NShTot=         117 NBatch=          45 AvBLen=         2.6
 IPart=  3 NShTot=         108 NBatch=          36 AvBLen=         3.0
 IPart=  7 NShTot=          94 NBatch=          24 AvBLen=         3.9
 IPart= 10 NShTot=          85 NBatch=          21 AvBLen=         4.0
 IPart=  6 NShTot=          95 NBatch=          25 AvBLen=         3.8
 IPart= 11 NShTot=          85 NBatch=          21 AvBLen=         4.0
 IPart= 14 NShTot=          79 NBatch=          21 AvBLen=         3.8
 IPart=  9 NShTot=          87 NBatch=          21 AvBLen=         4.1
 IPart=  5 NShTot=         101 NBatch=          29 AvBLen=         3.5
 IPart= 13 NShTot=          80 NBatch=          21 AvBLen=         3.8
 IPart=  4 NShTot=         103 NBatch=          31 AvBLen=         3.3
 IPart=  8 NShTot=          91 NBatch=          24 AvBLen=         3.8
 PrSmSu:  NxtVal=             21.
 Entering OneElI...
 Calculate potential energy integrals
    NBasis = 180  MinDer = 2  MaxDer = 2
 Requested accuracy = 0.1000D-12
 PrmmSu-InSpLW:  IPartL=    0 NPrtUS=   20 NPrtUL=    1 DoSpLW=F IThBeg=    0 IThEnd=   19 NThAct=   20.
 PrsmSu:  NPrtUS=  20 ThrOK=T IAlg=1 NPAlg=1 LenDen=           0 ISkipM=0 DoSpLW=F IThBeg=    0 IThEnd=   19.
 Prism:   IPart=     0 DynPar=F LinDyn=F Incr=           7.
 PRISM was handed    33503661 working-precision words and  1808 shell-pairs
 PRISM was handed    33503661 working-precision words and  1808 shell-pairs
 PRISM was handed    33503661 working-precision words and  1808 shell-pairs
 PRISM was handed    33503661 working-precision words and  1808 shell-pairs
 PRISM was handed    33503661 working-precision words and  1808 shell-pairs
 PRISM was handed    33503661 working-precision words and  1808 shell-pairs
 PRISM was handed    33503661 working-precision words and  1808 shell-pairs
 PRISM was handed    33503661 working-precision words and  1808 shell-pairs
 PRISM was handed    33503661 working-precision words and  1808 shell-pairs
 PRISM was handed    33503661 working-precision words and  1808 shell-pairs
 PRISM was handed    33503661 working-precision words and  1808 shell-pairs
 PRISM was handed    33503661 working-precision words and  1808 shell-pairs
 PRISM was handed    33503661 working-precision words and  1808 shell-pairs
 PRISM was handed    33503661 working-precision words and  1808 shell-pairs
 PRISM was handed    33503661 working-precision words and  1808 shell-pairs
 PRISM was handed    33503661 working-precision words and  1808 shell-pairs
 PRISM was handed    33503661 working-precision words and  1808 shell-pairs
 PRISM was handed    33503661 working-precision words and  1808 shell-pairs
 PRISM was handed    33503661 working-precision words and  1808 shell-pairs
 PRISM was handed    33503661 working-precision words and  1808 shell-pairs
 IPart= 16 NShTot=         600 NBatch=          75 AvBLen=         8.0
 IPart= 18 NShTot=         600 NBatch=          75 AvBLen=         8.0
 IPart= 15 NShTot=         616 NBatch=          77 AvBLen=         8.0
 IPart= 17 NShTot=         600 NBatch=          75 AvBLen=         8.0
 IPart= 19 NShTot=         600 NBatch=          75 AvBLen=         8.0
 IPart=  0 NShTot=        1048 NBatch=         131 AvBLen=         8.0
 IPart=  8 NShTot=         712 NBatch=          89 AvBLen=         8.0
 IPart=  4 NShTot=         824 NBatch=         103 AvBLen=         8.0
 IPart=  2 NShTot=         912 NBatch=         114 AvBLen=         8.0
 IPart=  3 NShTot=         848 NBatch=         106 AvBLen=         8.0
 IPart=  1 NShTot=         952 NBatch=         119 AvBLen=         8.0
 IPart=  7 NShTot=         728 NBatch=          91 AvBLen=         8.0
 IPart= 10 NShTot=         648 NBatch=          81 AvBLen=         8.0
 IPart=  9 NShTot=         672 NBatch=          84 AvBLen=         8.0
 IPart= 14 NShTot=         624 NBatch=          78 AvBLen=         8.0
 IPart= 13 NShTot=         640 NBatch=          80 AvBLen=         8.0
 IPart=  6 NShTot=         736 NBatch=          92 AvBLen=         8.0
 IPart=  5 NShTot=         808 NBatch=         101 AvBLen=         8.0
 IPart= 11 NShTot=         648 NBatch=          81 AvBLen=         8.0
 IPart= 12 NShTot=         648 NBatch=          81 AvBLen=         8.0
 PrSmSu:  NxtVal=            141.
 Polarizability after L701:
                1             2             3 
      1  0.000000D+00
      2  0.000000D+00  0.000000D+00
      3  0.000000D+00  0.000000D+00  0.000000D+00
 Dipole Derivatives after L701:
                 1             2             3             4             5 
      1  -0.125226D+01  0.584962D+00 -0.125510D+00 -0.769596D-01 -0.145385D+00
      2   0.207161D+00 -0.324640D+00  0.526009D-02 -0.117497D+00 -0.755655D+00
      3  -0.416653D-01  0.174497D-01 -0.385569D+00  0.120560D-01  0.428025D-02
                 6             7             8             9            10 
      1   0.197365D-02 -0.120860D+01  0.119819D+00 -0.383323D+00  0.132824D+00
      2  -0.317063D-01 -0.106986D+00 -0.921884D+00  0.166660D+00 -0.385139D-01
      3  -0.662226D+00 -0.896443D-01  0.868911D-01 -0.216251D+00  0.704185D-01
                11            12            13            14            15 
      1  -0.709670D-03  0.537707D-01  0.136797D+00  0.260018D-01 -0.263008D-01
      2   0.378124D+00 -0.226889D+00  0.644486D-02  0.301166D+00  0.223220D+00
      3  -0.187066D+00  0.350222D+00 -0.366921D-01  0.154963D+00  0.400358D+00
                16            17            18            19            20 
      1   0.958757D+00  0.445144D+00  0.206782D+00  0.186418D+00 -0.523445D+00
      2   0.163981D+00  0.234816D+00  0.292716D-01 -0.442094D-01  0.744424D+00
      3   0.424863D-01  0.219861D-01  0.107252D+00  0.981818D-02 -0.742205D-01
                21            22            23            24 
      1   0.162527D+00  0.112302D+01 -0.506388D+00  0.110081D+00
      2  -0.155942D+00 -0.703807D-01  0.343649D+00 -0.987411D-02
      3   0.130122D+00  0.332227D-01 -0.242834D-01  0.276091D+00
 Hessian after L701:
                1             2             3             4             5 
      1  0.239110D+01
      2 -0.169324D+01  0.750712D+01
      3 -0.370885D+00  0.219087D+00  0.110961D+02
      4 -0.154302D+01  0.389849D+01  0.990906D-01  0.827895D+01
      5  0.379581D+01 -0.348553D+01  0.220241D-01 -0.214935D+01  0.109175D+02
      6  0.103509D+00  0.205580D-01 -0.675320D+01  0.631745D-01 -0.165264D+00
      7  0.589380D+00 -0.130273D+00 -0.988987D-01 -0.792621D+00 -0.182706D+01
      8 -0.955513D-01 -0.370109D+00 -0.183681D-01 -0.178886D+01 -0.354249D+01
      9 -0.106549D+00 -0.119594D-01 -0.291553D+00 -0.293758D+00  0.153064D+00
     10 -0.636526D-01 -0.172056D+00 -0.455600D-01 -0.298460D+01 -0.386242D-01
     11 -0.171547D+00 -0.453913D-01 -0.190333D+00 -0.267694D-01 -0.185772D+01
     12 -0.288634D-01 -0.143045D+00  0.317473D+00  0.379555D-01 -0.102834D+01
     13 -0.111758D+00 -0.195154D+00  0.512869D-01 -0.294794D+01  0.577668D-01
     14 -0.198442D+00 -0.633025D-01  0.172446D+00  0.614960D-01 -0.213447D+01
     15  0.304347D-01  0.132491D+00  0.380390D+00  0.760344D-01  0.101679D+01
     16  0.995801D-01  0.533641D-01  0.100383D-01 -0.387961D-01  0.757455D-03
     17  0.447616D-01 -0.184748D-01  0.259372D-02  0.747736D-02  0.622866D-01
     18  0.161118D-01  0.478170D-02 -0.331452D-01  0.141297D-01  0.378911D-02
     19  0.129063D+00 -0.331492D-01 -0.105974D-01  0.870507D-02  0.755374D-01
     20 -0.101234D+00 -0.399283D-01  0.326654D-02  0.315011D-01 -0.523596D-02
     21  0.130201D-01 -0.233640D-02 -0.712735D-01 -0.264451D-03 -0.474791D-02
     22 -0.149069D+01 -0.172798D+01  0.365525D+00  0.193155D-01  0.851675D-01
     23 -0.158055D+01 -0.348439D+01 -0.210716D+00 -0.339798D-01  0.457007D-01
     24  0.343221D+00 -0.219576D+00 -0.464481D+01  0.363804D-02  0.268845D-02
                6             7             8             9            10 
      6  0.145968D+02
      7 -0.260039D+00  0.389572D+01
      8  0.139428D+00  0.120445D+01  0.684884D+01
      9 -0.438391D+01 -0.367295D-02  0.201566D+00  0.961077D+01
     10  0.495848D-01  0.506446D-03  0.361434D-01  0.290526D-02  0.281887D+01
     11 -0.107372D+01  0.246046D-01 -0.175971D-01 -0.232358D-01  0.232374D+00
     12 -0.195998D+01  0.291039D-02 -0.153238D-01  0.618821D-01 -0.449039D-02
     13  0.748145D-01  0.174137D-01  0.435472D-01  0.287471D-01  0.243072D+00
     14  0.107053D+01  0.536048D-01  0.412496D-01  0.855665D-03 -0.125072D-03
     15 -0.155763D+01  0.446947D-01 -0.815468D-02  0.984902D-01 -0.308661D-01
     16 -0.277955D-03 -0.120150D+01  0.799153D+00  0.325759D+00  0.116088D-01
     17  0.340300D-02  0.752739D+00 -0.213305D+01  0.173938D+00 -0.199479D-02
     18  0.240154D-01  0.291161D+00  0.164267D+00 -0.251425D+01  0.711179D-02
     19 -0.165672D-01 -0.267472D+01 -0.166468D+00  0.501442D-01 -0.256763D-02
     20  0.916201D-02 -0.344619D-01 -0.788081D+00 -0.495804D+00 -0.318588D-01
     21  0.365008D-01  0.155655D-01 -0.463407D+00 -0.254123D+01  0.120748D-01
     22 -0.141987D-01  0.165834D+00 -0.324126D-01 -0.357556D-02 -0.232337D-01
     23 -0.409528D-02 -0.436069D-01 -0.387700D-01  0.157569D-02 -0.238578D-01
     24 -0.261543D-02  0.827965D-02 -0.704816D-05 -0.401967D-01  0.923970D-02
               11            12            13            14            15 
     11  0.160978D+01
     12  0.121071D+01  0.203346D+01
     13  0.547758D-02 -0.387949D-01  0.279407D+01
     14  0.265432D+00 -0.277014D-02  0.112165D+00  0.188162D+01
     15  0.101715D+00 -0.462030D+00 -0.102546D+00 -0.124807D+01  0.154123D+01
     16 -0.128148D-01  0.104976D-01  0.173702D-01 -0.173646D-01 -0.183382D-01
     17 -0.475225D-02  0.363109D-03 -0.323154D-02 -0.730163D-02  0.527224D-03
     18 -0.577275D-02  0.302740D-03 -0.711119D-02  0.417710D-02 -0.415293D-02
     19 -0.345481D-01  0.166969D-01 -0.156507D-02 -0.940089D-02 -0.451149D-02
     20  0.519310D-01 -0.314900D-01 -0.954781D-02  0.193988D-01  0.122223D-01
     21 -0.242180D-01 -0.585213D-02 -0.226821D-02  0.310228D-02 -0.516957D-02
     22 -0.167760D-01  0.408840D-02 -0.106658D-01 -0.193286D-02  0.509833D-02
     23 -0.167476D-02  0.989790D-02 -0.110226D-01 -0.261931D-02 -0.752074D-02
     24  0.485495D-02  0.147483D-01 -0.412786D-02 -0.271991D-03  0.887319D-02
               16            17            18            19            20 
     16  0.107887D+01
     17 -0.681359D+00  0.224735D+01
     18 -0.334914D+00 -0.182329D+00  0.244624D+01
     19  0.294651D-01 -0.122404D+00  0.112095D-01  0.250812D+01
     20 -0.136059D+00 -0.145317D+00  0.119495D-01  0.293341D+00  0.901486D+00
     21  0.583596D-02  0.120933D-02  0.805412D-01 -0.470782D-01  0.492226D+00
     22  0.341047D-02  0.401092D-02  0.230205D-02  0.349967D-02 -0.116802D-01
     23 -0.567670D-02 -0.747062D-03 -0.862510D-03 -0.290810D-02  0.574731D-02
     24  0.139939D-02  0.294802D-03  0.452302D-03  0.703761D-03 -0.153199D-02
               21            22            23            24 
     21  0.250750D+01
     22  0.311438D-02  0.133253D+01
     23 -0.182825D-02  0.170160D+01  0.347675D+01
     24 -0.101655D-02 -0.362354D+00  0.213549D+00  0.466456D+01
 Leave Link  701 at Wed May 22 18:34:56 2019, MaxMem=   671088640 cpu:               6.0 elap:               0.3
 (Enter /shared/centos7/gaussian/g16/l702.exe)
 L702 exits ... SP integral derivatives will be done elsewhere.
 Leave Link  702 at Wed May 22 18:34:56 2019, MaxMem=   671088640 cpu:               0.3 elap:               0.0
 (Enter /shared/centos7/gaussian/g16/l703.exe)
 Integral derivatives from FoFJK, PRISM(SPDF).
 Compute integral second derivatives, UseDBF=F ICtDFT=           0.
 ICntrl=    100147.
 Calling FoFJK, ICntrl=    100147 FMM=F ISym2X=0 I1Cent= 0 IOpClX= 1 NMat=1 NMatS=1 NMatT=0.
 FoFJK:  IHMeth= 1 ICntrl=  100147 DoSepK=F KAlg= 0 I1Cent=           0 FoldK=F
 IRaf=         0 NMat=       1 IRICut=       1 DoRegI=T DoRafI=F ISym2E= 0 IDoP0=0 IntGTp=1.
 FoFCou: FMM=F IPFlag=           0 FMFlag=      100000 FMFlg1=         800
         NFxFlg=           0 DoJE=F BraDBF=F KetDBF=F FulRan=T
         wScrn=  0.000000 ICntrl=    100147 IOpCl=  1 I1Cent=           0 NGrid=           0
         NMat0=    1 NMatS0=      1 NMatT0=    0 NMatD0=    1 NMtDS0=    0 NMtDT0=    0
 Symmetry not used in FoFCou.
 FoFCou:  KetSym=F NOpSet=  1 NOpAb=1 NOp=  1.
 FoFCou:  CnvScl= 1.00D+00 Thresh= 1.00D-08 IAcrcy=      12.
 PrismS was handed   670881882 working-precision words and  1826 shell-pairs
 FoFCou: LinMIO=F DoNuc=F BraDBF=F KetDBF=F HaveP=T PDBF=F HaveZ=T HaveW=F
         NIJTC =      10 NIJTAt=       0 NIJTCD=       0 NIJTT =      10
         IJTBeg=       1 IJTEnd=      10 KLTBeg=       1 KLTEnd=      10
         IPTBeg=       1 IPTEnd=      10 IPTBCv=       1 IPTECv=      10
         IZTBeg=       1 IZTEnd=      10 IZTBCv=       1 IZTECv=      10
         IWTBeg=      11 IWTEnd=      10 IWTBCv=      11 IWTECv=      10
         INTBeg=       1 INTEnd=       0 IFTBCv=       1 IFTECv=      10
 NCel replicated for PrismC:     1
 CoulSu-InSpLW:  IPartL=    0 NPrtUS=   20 NPrtUL=    1 DoSpLW=F IThBeg=    0 IThEnd=   19 NThAct=   20.
 CoulSu:  IncDef=  1024 NBBP=        1668051 NTPThr=   100 NPartT=   20 Incr=         834 LDynOK=F GPUOK=T.
 CoulSu:  NPrtUS=  20 ThrOK=T IAlg=1 NPAlg=1 LenDen=           0 LWGrdD=           0 DoCopy=F ISkipM=0
          DoSpLW=F IThBeg=    0 IThEnd=   19.
 Enter PrismC:  IPart=  0 JobTyp=22 DoJE=F Cont=F.
 PrismC:  IPart=     0 DynPar=T LinDyn=F Incr=         834 UseFst=F UseS4=T ISplat=2.
 PrismC was handed    33503143 working-precision words and  1826 shell-pairs
 Enter PrismC:  IPart=  9 JobTyp=22 DoJE=F Cont=F.
 Enter PrismC:  IPart= 15 JobTyp=22 DoJE=F Cont=F.
 PrismC:  IPart=     9 DynPar=T LinDyn=F Incr=         834 UseFst=F UseS4=T ISplat=2.
 Enter PrismC:  IPart=  7 JobTyp=22 DoJE=F Cont=F.
 PrismC:  IPart=    15 DynPar=T LinDyn=F Incr=         834 UseFst=F UseS4=T ISplat=2.
 PrismC was handed    33503143 working-precision words and  1826 shell-pairs
 PrismC was handed    33503143 working-precision words and  1826 shell-pairs
 Enter PrismC:  IPart= 16 JobTyp=22 DoJE=F Cont=F.
 Enter PrismC:  IPart= 12 JobTyp=22 DoJE=F Cont=F.
 PrismC:  IPart=    16 DynPar=T LinDyn=F Incr=         834 UseFst=F UseS4=T ISplat=2.
 PrismC was handed    33503143 working-precision words and  1826 shell-pairs
 PrismC:  IPart=     7 DynPar=T LinDyn=F Incr=         834 UseFst=F UseS4=T ISplat=2.
 PrismC was handed    33503143 working-precision words and  1826 shell-pairs
 PrismC:  IPart=    12 DynPar=T LinDyn=F Incr=         834 UseFst=F UseS4=T ISplat=2.
 PrismC was handed    33503143 working-precision words and  1826 shell-pairs
 Enter PrismC:  IPart= 10 JobTyp=22 DoJE=F Cont=F.
 PrismC:  IPart=    10 DynPar=T LinDyn=F Incr=         834 UseFst=F UseS4=T ISplat=2.
 PrismC was handed    33503143 working-precision words and  1826 shell-pairs
 Enter PrismC:  IPart= 18 JobTyp=22 DoJE=F Cont=F.
 Enter PrismC:  IPart= 13 JobTyp=22 DoJE=F Cont=F.
 PrismC:  IPart=    18 DynPar=T LinDyn=F Incr=         834 UseFst=F UseS4=T ISplat=2.
 PrismC was handed    33503143 working-precision words and  1826 shell-pairs
 PrismC:  IPart=    13 DynPar=T LinDyn=F Incr=         834 UseFst=F UseS4=T ISplat=2.
 PrismC was handed    33503143 working-precision words and  1826 shell-pairs
 Enter PrismC:  IPart= 17 JobTyp=22 DoJE=F Cont=F.
 PrismC:  IPart=    17 DynPar=T LinDyn=F Incr=         834 UseFst=F UseS4=T ISplat=2.
 Enter PrismC:  IPart=  2 JobTyp=22 DoJE=F Cont=F.
 PrismC was handed    33503143 working-precision words and  1826 shell-pairs
 Enter PrismC:  IPart=  1 JobTyp=22 DoJE=F Cont=F.
 PrismC:  IPart=     2 DynPar=T LinDyn=F Incr=         834 UseFst=F UseS4=T ISplat=2.
 PrismC was handed    33503143 working-precision words and  1826 shell-pairs
 Enter PrismC:  IPart=  8 JobTyp=22 DoJE=F Cont=F.
 PrismC:  IPart=     1 DynPar=T LinDyn=F Incr=         834 UseFst=F UseS4=T ISplat=2.
 Enter PrismC:  IPart=  5 JobTyp=22 DoJE=F Cont=F.
 PrismC was handed    33503143 working-precision words and  1826 shell-pairs
 Enter PrismC:  IPart=  4 JobTyp=22 DoJE=F Cont=F.
 Enter PrismC:  IPart= 11 JobTyp=22 DoJE=F Cont=F.
 Enter PrismC:  IPart=  3 JobTyp=22 DoJE=F Cont=F.
 PrismC:  IPart=     5 DynPar=T LinDyn=F Incr=         834 UseFst=F UseS4=T ISplat=2.
 Enter PrismC:  IPart= 14 JobTyp=22 DoJE=F Cont=F.
 Enter PrismC:  IPart= 19 JobTyp=22 DoJE=F Cont=F.
 PrismC:  IPart=     3 DynPar=T LinDyn=F Incr=         834 UseFst=F UseS4=T ISplat=2.
 Enter PrismC:  IPart=  6 JobTyp=22 DoJE=F Cont=F.
 PrismC:  IPart=     8 DynPar=T LinDyn=F Incr=         834 UseFst=F UseS4=T ISplat=2.
 PrismC:  IPart=     6 DynPar=T LinDyn=F Incr=         834 UseFst=F UseS4=T ISplat=2.
 PrismC was handed    33503143 working-precision words and  1826 shell-pairs
 PrismC was handed    33503143 working-precision words and  1826 shell-pairs
 PrismC:  IPart=    19 DynPar=T LinDyn=F Incr=         834 UseFst=F UseS4=T ISplat=2.
 PrismC was handed    33503143 working-precision words and  1826 shell-pairs
 PrismC was handed    33503143 working-precision words and  1826 shell-pairs
 PrismC:  IPart=    14 DynPar=T LinDyn=F Incr=         834 UseFst=F UseS4=T ISplat=2.
 PrismC was handed    33503143 working-precision words and  1826 shell-pairs
 PrismC:  IPart=    11 DynPar=T LinDyn=F Incr=         834 UseFst=F UseS4=T ISplat=2.
 PrismC was handed    33503143 working-precision words and  1826 shell-pairs
 PrismC:  IPart=     4 DynPar=T LinDyn=F Incr=         834 UseFst=F UseS4=T ISplat=2.
 PrismC was handed    33503143 working-precision words and  1826 shell-pairs
 PrismC was handed    33503143 working-precision words and  1826 shell-pairs
 IPart=  4 NShTot=       84064 NShNF=       84064 NShFF=           0 MinMC=       7
           NShCPU=       84064 NBCPU=        3787 AvBCPU=        22.2
           NShGPU=           0 NBGPU=           0 AvBGPU=         0.0
 IPart=  3 NShTot=       88170 NShNF=       88170 NShFF=           0 MinMC=       7
           NShCPU=       88170 NBCPU=        3844 AvBCPU=        22.9
           NShGPU=           0 NBGPU=           0 AvBGPU=         0.0
 IPart= 18 NShTot=       87592 NShNF=       87592 NShFF=           0 MinMC=       7
           NShCPU=       87592 NBCPU=        3922 AvBCPU=        22.3
           NShGPU=           0 NBGPU=           0 AvBGPU=         0.0
 IPart=  9 NShTot=       92514 NShNF=       92514 NShFF=           0 MinMC=       7
           NShCPU=       92514 NBCPU=        3846 AvBCPU=        24.1
           NShGPU=           0 NBGPU=           0 AvBGPU=         0.0
 IPart=  1 NShTot=       75849 NShNF=       75849 NShFF=           0 MinMC=       7
           NShCPU=       75849 NBCPU=        2813 AvBCPU=        27.0
           NShGPU=           0 NBGPU=           0 AvBGPU=         0.0
 IPart= 11 NShTot=       54497 NShNF=       54497 NShFF=           0 MinMC=       7
           NShCPU=       54497 NBCPU=        2464 AvBCPU=        22.1
           NShGPU=           0 NBGPU=           0 AvBGPU=         0.0
 IPart= 19 NShTot=       92915 NShNF=       92915 NShFF=           0 MinMC=       7
           NShCPU=       92915 NBCPU=        3786 AvBCPU=        24.5
           NShGPU=           0 NBGPU=           0 AvBGPU=         0.0
 IPart=  8 NShTot=       85401 NShNF=       85401 NShFF=           0 MinMC=       7
           NShCPU=       85401 NBCPU=        3708 AvBCPU=        23.0
           NShGPU=           0 NBGPU=           0 AvBGPU=         0.0
 IPart=  5 NShTot=       45249 NShNF=       45249 NShFF=           0 MinMC=       7
           NShCPU=       45249 NBCPU=        1975 AvBCPU=        22.9
           NShGPU=           0 NBGPU=           0 AvBGPU=         0.0
 IPart=  7 NShTot=       37219 NShNF=       37219 NShFF=           0 MinMC=       7
           NShCPU=       37219 NBCPU=        1717 AvBCPU=        21.7
           NShGPU=           0 NBGPU=           0 AvBGPU=         0.0
 IPart=  0 NShTot=       40380 NShNF=       40380 NShFF=           0 MinMC=       7
           NShCPU=       40380 NBCPU=        1853 AvBCPU=        21.8
           NShGPU=           0 NBGPU=           0 AvBGPU=         0.0
 IPart=  2 NShTot=       42514 NShNF=       42514 NShFF=           0 MinMC=       7
           NShCPU=       42514 NBCPU=        1543 AvBCPU=        27.6
           NShGPU=           0 NBGPU=           0 AvBGPU=         0.0
 IPart= 14 NShTot=       47513 NShNF=       47513 NShFF=           0 MinMC=       7
           NShCPU=       47513 NBCPU=        1672 AvBCPU=        28.4
           NShGPU=           0 NBGPU=           0 AvBGPU=         0.0
 IPart= 10 NShTot=       79842 NShNF=       79842 NShFF=           0 MinMC=       7
           NShCPU=       79842 NBCPU=        3554 AvBCPU=        22.5
           NShGPU=           0 NBGPU=           0 AvBGPU=         0.0
 IPart= 12 NShTot=       86085 NShNF=       86085 NShFF=           0 MinMC=       7
           NShCPU=       86085 NBCPU=        4085 AvBCPU=        21.1
           NShGPU=           0 NBGPU=           0 AvBGPU=         0.0
 IPart= 13 NShTot=       87483 NShNF=       87483 NShFF=           0 MinMC=       7
           NShCPU=       87483 NBCPU=        3808 AvBCPU=        23.0
           NShGPU=           0 NBGPU=           0 AvBGPU=         0.0
 IPart= 15 NShTot=       48719 NShNF=       48719 NShFF=           0 MinMC=       7
           NShCPU=       48719 NBCPU=        2331 AvBCPU=        20.9
           NShGPU=           0 NBGPU=           0 AvBGPU=         0.0
 IPart= 17 NShTot=       44045 NShNF=       44045 NShFF=           0 MinMC=       7
           NShCPU=       44045 NBCPU=        1724 AvBCPU=        25.5
           NShGPU=           0 NBGPU=           0 AvBGPU=         0.0
 IPart= 16 NShTot=       82999 NShNF=       82999 NShFF=           0 MinMC=       7
           NShCPU=       82999 NBCPU=        3739 AvBCPU=        22.2
           NShGPU=           0 NBGPU=           0 AvBGPU=         0.0
 IPart=  6 NShTot=       83487 NShNF=       83487 NShFF=           0 MinMC=       7
           NShCPU=       83487 NBCPU=        3436 AvBCPU=        24.3
           NShGPU=           0 NBGPU=           0 AvBGPU=         0.0
 CoulSu:  NxtVal=        1793101 LenVP=       33503144 MinMC=       7.
 ReadGW:  IGet=0 IStart=           1 Next=           1 LGW=           0.
 Remaining memory in FofDFT      639.94 Mw
 CkSvGd:  ISavGI=        -1 IRadAn=       5 IRASav=       5 ISavGd=        -1.
 CalDSu-InSpLW:  IPartL=    0 NPrtUS=   20 NPrtUL=    1 DoSpLW=F IThBeg=    0 IThEnd=   19 NThAct=   20.
 CalDSu:  NPrtUS=  20 ThrOK=T IAlg=1 NPAlg=2 DoDPD=T LenP=       16290 LenD1P=             0 GPUOK=F
          ISkipM=0 DoSpLW=F IThBeg=    0 IThEnd=   19.
 IPart=  0 IRanGd=          0 ScrnBf=T ScrnGd=T RCrit=4.00D+00 DoMicB=T.
 IPart= 10         8554 of         9560 points in       8 batches and       57 microbatches, Max-NSigAt=       8 Max-NSgAt2=       8
 IPart=  6         8407 of         9510 points in      11 batches and       75 microbatches, Max-NSigAt=       8 Max-NSgAt2=       8
 IPart=  7         8607 of         8864 points in       8 batches and       34 microbatches, Max-NSigAt=       8 Max-NSgAt2=       8
 IPart= 12        10208 of        10900 points in      10 batches and       74 microbatches, Max-NSigAt=       8 Max-NSgAt2=       8
 IPart= 14         8006 of         8794 points in       8 batches and       50 microbatches, Max-NSigAt=       8 Max-NSgAt2=       8
 IPart=  3         9264 of         9440 points in       8 batches and       28 microbatches, Max-NSigAt=       8 Max-NSgAt2=       8
 IPart=  8         8248 of         8892 points in       9 batches and       56 microbatches, Max-NSigAt=       8 Max-NSgAt2=       8
 IPart=  4         9528 of         9938 points in       7 batches and       49 microbatches, Max-NSigAt=       8 Max-NSgAt2=       8
 IPart= 13         7630 of         8070 points in       8 batches and       41 microbatches, Max-NSigAt=       8 Max-NSgAt2=       8
 IPart= 17         8543 of         8864 points in       8 batches and       44 microbatches, Max-NSigAt=       8 Max-NSgAt2=       8
 IPart= 16         6831 of         7142 points in       6 batches and       31 microbatches, Max-NSigAt=       8 Max-NSgAt2=       8
 IPart= 11         8312 of         9410 points in       9 batches and       44 microbatches, Max-NSigAt=       8 Max-NSgAt2=       8
 IPart= 15         7850 of         8548 points in       7 batches and       38 microbatches, Max-NSigAt=       8 Max-NSgAt2=       8
 IPart= 19         8738 of         9600 points in       8 batches and       42 microbatches, Max-NSigAt=       8 Max-NSgAt2=       8
 IPart=  9         8284 of         9426 points in      10 batches and       65 microbatches, Max-NSigAt=       8 Max-NSgAt2=       8
 IPart=  2         9960 of        10922 points in      10 batches and      104 microbatches, Max-NSigAt=       8 Max-NSgAt2=       8
 IPart=  0         9040 of         9728 points in       8 batches and       60 microbatches, Max-NSigAt=       8 Max-NSgAt2=       8
 IPart=  1         6029 of         6504 points in       6 batches and       40 microbatches, Max-NSigAt=       8 Max-NSgAt2=       8
 IPart=  5         7325 of         7684 points in       7 batches and       43 microbatches, Max-NSigAt=       8 Max-NSgAt2=       8
 IPart= 18         5683 of         6118 points in       6 batches and       39 microbatches, Max-NSigAt=       8 Max-NSgAt2=       8
 Polarizability after L703:
                1             2             3 
      1  0.000000D+00
      2  0.000000D+00  0.000000D+00
      3  0.000000D+00  0.000000D+00  0.000000D+00
 Dipole Derivatives after L703:
                 1             2             3             4             5 
      1  -0.125226D+01  0.584962D+00 -0.125510D+00 -0.769596D-01 -0.145385D+00
      2   0.207161D+00 -0.324640D+00  0.526009D-02 -0.117497D+00 -0.755655D+00
      3  -0.416653D-01  0.174497D-01 -0.385569D+00  0.120560D-01  0.428025D-02
                 6             7             8             9            10 
      1   0.197365D-02 -0.120860D+01  0.119819D+00 -0.383323D+00  0.132824D+00
      2  -0.317063D-01 -0.106986D+00 -0.921884D+00  0.166660D+00 -0.385139D-01
      3  -0.662226D+00 -0.896443D-01  0.868911D-01 -0.216251D+00  0.704185D-01
                11            12            13            14            15 
      1  -0.709670D-03  0.537707D-01  0.136797D+00  0.260018D-01 -0.263008D-01
      2   0.378124D+00 -0.226889D+00  0.644486D-02  0.301166D+00  0.223220D+00
      3  -0.187066D+00  0.350222D+00 -0.366921D-01  0.154963D+00  0.400358D+00
                16            17            18            19            20 
      1   0.958757D+00  0.445144D+00  0.206782D+00  0.186418D+00 -0.523445D+00
      2   0.163981D+00  0.234816D+00  0.292716D-01 -0.442094D-01  0.744424D+00
      3   0.424863D-01  0.219861D-01  0.107252D+00  0.981818D-02 -0.742205D-01
                21            22            23            24 
      1   0.162527D+00  0.112302D+01 -0.506388D+00  0.110081D+00
      2  -0.155942D+00 -0.703807D-01  0.343649D+00 -0.987411D-02
      3   0.130122D+00  0.332227D-01 -0.242834D-01  0.276091D+00
 Hessian after L703:
                1             2             3             4             5 
      1  0.561064D+00
      2 -0.497357D-01  0.385932D+00
      3  0.394583D-01 -0.251265D-01  0.616353D-01
      4 -0.191603D+00 -0.679617D-01 -0.653665D-02  0.487527D+00
      5 -0.113198D+00 -0.173017D+00 -0.162445D-04  0.199492D-01  0.523045D+00
      6 -0.120323D-02  0.402215D-02 -0.596121D-01  0.134758D-01 -0.210674D-01
      7 -0.359033D-01  0.123620D-01 -0.189846D-05 -0.156096D+00  0.355308D-01
      8 -0.274983D-01  0.157506D-01  0.129841D-02  0.564713D-01 -0.119564D+00
      9 -0.930373D-03  0.732076D-03  0.200241D-02  0.109722D-02  0.160166D-02
     10 -0.940232D-02 -0.299268D-01  0.224025D-01 -0.531357D-01  0.215446D-01
     11 -0.122836D-01 -0.221004D-01  0.172132D-01  0.129440D-01 -0.139623D+00
     12  0.508695D-02 -0.375973D-03  0.683078D-02 -0.195236D-01  0.113850D+00
     13 -0.115578D-01 -0.274037D-01 -0.244458D-01 -0.476895D-01  0.905602D-02
     14 -0.149306D-01 -0.193260D-01 -0.193685D-01  0.148252D-02 -0.102541D+00
     15 -0.673103D-02 -0.258562D-02  0.781623D-02  0.472903D-02 -0.917670D-01
     16 -0.505818D-02  0.392821D-02 -0.192846D-03 -0.102523D-01 -0.173822D-01
     17  0.361759D-02 -0.162627D-02 -0.356218D-04  0.108903D-01  0.106371D-01
     18  0.809989D-03 -0.414409D-03  0.723017D-03  0.396298D-02  0.626587D-03
     19  0.337520D-02 -0.210456D-02  0.388810D-04  0.270548D-02  0.242781D-01
     20  0.580730D-04  0.150291D-02 -0.323008D-03 -0.314833D-02 -0.872729D-02
     21 -0.592653D-03  0.000000D+00 -0.470940D-03  0.183595D-02 -0.337286D-02
     22 -0.310914D+00  0.160842D+00 -0.307226D-01 -0.314558D-01  0.202215D-01
     23  0.213971D+00 -0.187117D+00  0.263583D-01 -0.306273D-01  0.979098D-02
     24 -0.358980D-01  0.237490D-01 -0.189247D-01  0.959349D-03  0.145414D-03
                6             7             8             9            10 
      6  0.499749D+00
      7  0.159179D-01  0.497804D+00
      8 -0.647868D-02  0.512401D-01  0.569934D+00
      9 -0.521919D-01  0.384079D-01 -0.383387D-01  0.105528D+00
[...]
     20  0.544947D-02 -0.204536D-02 -0.160206D-01  0.554548D-02  0.900330D-03
     21  0.408152D-03  0.565128D-03  0.920879D-03  0.184914D-02 -0.302235D-02
     22  0.979638D-04  0.410932D-03  0.124895D-02  0.160669D-02 -0.270477D-02
     23 -0.163839D-01  0.129325D-03 -0.174206D-02  0.107831D-02  0.445747D-02
     24 -0.166941D-01 -0.248709D-04 -0.141399D-02  0.835861D-03  0.477505D-02
     25  0.182699D-01  0.956783D-04  0.368019D-03 -0.465638D-02 -0.120282D-02
     26  0.179597D-01 -0.585176D-04  0.696088D-03 -0.489882D-02 -0.885246D-03
                6             7             8             9            10 
      6  0.371419D+00
      7  0.301596D-03  0.371027D+00
      8  0.809107D-03  0.215670D-03  0.175949D+00
      9  0.554668D-02 -0.506325D-02  0.206879D-01  0.166882D+00
     10 -0.165095D-02  0.681545D-03 -0.648069D-02 -0.571640D-01  0.706620D-01
     11 -0.169729D-02  0.108502D-02 -0.755659D-02 -0.580371D-01  0.434644D-02
     12 -0.158190D-02  0.369746D-02 -0.542346D-02 -0.436394D-01 -0.248167D-01
     13 -0.100747D-02  0.106386D-02 -0.470996D-02 -0.373003D-01  0.172860D-01
     14  0.181778D-03 -0.126904D-02  0.270962D-02  0.230586D-01 -0.846457D-02
     15  0.580147D-02 -0.976726D-02  0.441316D-02  0.183415D-01 -0.301554D-02
     16 -0.104856D-01  0.605995D-02 -0.252598D-02 -0.179511D-01  0.200727D-02
     17  0.484603D-02  0.390700D-02 -0.185909D-02 -0.402868D-03  0.989078D-03
     18  0.317678D-03 -0.101917D-02  0.000000D+00  0.229567D-02  0.320016D-02
     19  0.959842D-03  0.677862D-03  0.278432D-02  0.218006D-01 -0.206725D-01
     20 -0.913997D-03  0.214455D-03 -0.266233D-02 -0.218398D-01  0.155120D-01
     21 -0.929255D-03 -0.334371D-03  0.280157D-03 -0.489138D-03  0.187702D-01
     22  0.604763D-03  0.139775D-02  0.273108D-03 -0.657665D-03  0.187475D-01
     23 -0.145371D-02 -0.250485D-03 -0.157614D-02 -0.949386D-02 -0.162969D-01
     24  0.803075D-04  0.148163D-02 -0.158318D-02 -0.966239D-02 -0.163196D-01
     25 -0.127903D-03 -0.154869D-02  0.117071D-02  0.107183D-01 -0.141500D-02
     26  0.140612D-02  0.183428D-03  0.116366D-02  0.105498D-01 -0.143774D-02
               11            12            13            14            15 
     11  0.706423D-01
     12  0.191003D-01  0.730812D-01
     13 -0.251397D-01 -0.246774D-02  0.680224D-01
     14 -0.924082D-02 -0.195385D-01 -0.183449D-01  0.316760D-01
     15 -0.458369D-02 -0.943955D-02 -0.474137D-02  0.271959D-02  0.717704D-01
     16  0.397308D-02  0.114079D-01  0.457146D-02 -0.329922D-02 -0.375989D-01
     17  0.671998D-03 -0.193207D-02  0.828890D-04  0.600196D-03 -0.336988D-01
     18 -0.410725D-02 -0.219426D-01  0.204176D-01  0.246343D-03  0.155063D-02
     19 -0.158325D-01  0.245776D-01  0.369486D-02 -0.142347D-01 -0.195035D-04
     20  0.200662D-01 -0.299457D-02 -0.241861D-01  0.139229D-01 -0.142057D-02
     21 -0.189487D-01 -0.260601D-02  0.309818D-02  0.165246D-03  0.216326D-03
     22 -0.184641D-01 -0.253054D-02  0.254105D-02  0.353605D-03 -0.132055D-03
     23  0.913988D-03  0.101633D-01  0.721309D-02  0.810270D-02 -0.189504D-02
     24  0.139857D-02  0.102388D-01  0.665596D-02  0.829106D-02 -0.224342D-02
     25  0.157571D-01 -0.825378D-02 -0.947731D-02 -0.793910D-02  0.326239D-02
     26  0.162417D-01 -0.817831D-02 -0.100344D-01 -0.775074D-02  0.291401D-02
               16            17            18            19            20 
     16  0.705049D-01
     17 -0.322768D-01  0.649648D-01
     18 -0.238498D-02  0.827601D-03  0.169095D-01
     19  0.125523D-02 -0.121761D-02 -0.687069D-02  0.250194D-01
     20  0.925120D-03  0.565925D-03 -0.717194D-02 -0.154823D-01  0.241008D-01
     21 -0.125402D-03 -0.383334D-03 -0.602159D-02  0.228603D-02  0.218307D-02
     22  0.979851D-03 -0.637116D-03 -0.598917D-02  0.228693D-02  0.270957D-02
     23  0.174549D-02 -0.133957D-03  0.232934D-02 -0.158516D-02 -0.109592D-02
     24  0.285075D-02 -0.387739D-03  0.236175D-02 -0.158425D-02 -0.569414D-03
     25 -0.378113D-02  0.240275D-03  0.298655D-02 -0.111949D-02 -0.187979D-02
     26 -0.267588D-02 -0.135070D-04  0.301897D-02 -0.111859D-02 -0.135329D-02
               21            22            23            24            25 
     21  0.158803D-01
     22  0.139026D-01  0.152380D-01
     23 -0.536377D-02 -0.725260D-02  0.144821D-01
     24 -0.734142D-02 -0.591727D-02  0.125933D-01  0.140175D-01
     25 -0.585330D-02 -0.768504D-02 -0.579728D-02 -0.762901D-02  0.144897D-01
     26 -0.783095D-02 -0.634971D-02 -0.768610D-02 -0.620486D-02  0.126580D-01
               26 
     26  0.141392D-01
 Leave Link  716 at Wed May 22 18:38:23 2019, MaxMem=   671088640 cpu:               0.6 elap:               0.1
 (Enter /shared/centos7/gaussian/g16/l103.exe)

 GradGradGradGradGradGradGradGradGradGradGradGradGradGradGradGradGradGrad
 Berny optimization.
 Red2BG is reusing G-inverse.
 Internal  Forces:  Max     0.000038968 RMS     0.000011723
 Search for a local minimum.
 Step number   1 out of a maximum of    2
 All quantities printed in internal units (Hartrees-Bohrs-Radians)
 Second derivative matrix not updated -- analytic derivatives used.
 ITU=  0
     Eigenvalues ---    0.00049   0.00230   0.00514   0.05991   0.06994
     Eigenvalues ---    0.09410   0.09747   0.11116   0.13406   0.16197
     Eigenvalues ---    0.23597   0.30565   0.31769   0.33627   0.37179
     Eigenvalues ---    0.37244   0.40964   0.54806
 Angle between quadratic step and forces=  81.88 degrees.
 Linear search not attempted -- first point.
 Iteration  1 RMS(Cart)=  0.00058298 RMS(Int)=  0.00000038
 Iteration  2 RMS(Cart)=  0.00000034 RMS(Int)=  0.00000009
 ITry= 1 IFail=0 DXMaxC= 1.77D-03 DCOld= 1.00D+10 DXMaxT= 3.00D-01 DXLimC= 3.00D+00 Rises=F
 Variable       Old X    -DE/DX   Delta X   Delta X   Delta X     New X
                                 (Linear)    (Quad)   (Total)
    R1        2.67605  -0.00004   0.00000  -0.00012  -0.00012   2.67593
    R2        1.81217  -0.00002   0.00000  -0.00003  -0.00003   1.81214
    R3        2.79258  -0.00000   0.00000   0.00002   0.00002   2.79260
    R4        2.07522   0.00001   0.00000   0.00001   0.00001   2.07523
    R5        2.08275   0.00001   0.00000   0.00005   0.00005   2.08280
    R6        2.03744   0.00000   0.00000   0.00002   0.00002   2.03747
    R7        2.03789   0.00000   0.00000   0.00001   0.00001   2.03791
    A1        1.89922  -0.00002   0.00000  -0.00005  -0.00005   1.89916
    A2        1.89840  -0.00001   0.00000   0.00002   0.00002   1.89842
    A3        1.94002   0.00001   0.00000   0.00011   0.00011   1.94013
    A4        1.92496   0.00001   0.00000   0.00009   0.00009   1.92505
    A5        1.92009  -0.00000   0.00000  -0.00008  -0.00008   1.92001
    A6        1.92328  -0.00001   0.00000  -0.00013  -0.00013   1.92315
    A7        1.85711  -0.00000   0.00000  -0.00002  -0.00002   1.85709
    A8        2.10062  -0.00002   0.00000  -0.00024  -0.00024   2.10038
    A9        2.07847   0.00001   0.00000   0.00008   0.00008   2.07855
   A10        2.09126   0.00001   0.00000  -0.00004  -0.00004   2.09122
    D1        3.04675  -0.00000   0.00000  -0.00026  -0.00026   3.04649
    D2       -1.11985  -0.00001   0.00000  -0.00028  -0.00028  -1.12013
    D3        0.93564   0.00001   0.00000  -0.00017  -0.00017   0.93547
    D4        2.91752   0.00000   0.00000  -0.00066  -0.00066   2.91686
    D5       -0.39585  -0.00000   0.00000  -0.00196  -0.00196  -0.39781
    D6        0.78878  -0.00000   0.00000  -0.00076  -0.00076   0.78802
    D7       -2.52459  -0.00001   0.00000  -0.00206  -0.00206  -2.52665
    D8       -1.25352   0.00001   0.00000  -0.00062  -0.00062  -1.25414
    D9        1.71629   0.00000   0.00000  -0.00192  -0.00192   1.71438
         Item               Value     Threshold  Converged?
 Maximum Force            0.000039     0.000450     YES
 RMS     Force            0.000012     0.000300     YES
 Maximum Displacement     0.001769     0.001800     YES
 RMS     Displacement     0.000583     0.001200     YES
 Predicted change in Energy=-1.549655D-08
 Optimization completed.
    -- Stationary point found.
                           ----------------------------
                           !   Optimized Parameters   !
                           ! (Angstroms and Degrees)  !
 --------------------------                            --------------------------
 ! Name  Definition              Value          Derivative Info.                !
 --------------------------------------------------------------------------------
 ! R1    R(1,2)                  1.4161         -DE/DX =    0.0                 !
 ! R2    R(1,8)                  0.959          -DE/DX =    0.0                 !
 ! R3    R(2,3)                  1.4778         -DE/DX =    0.0                 !
 ! R4    R(2,4)                  1.0982         -DE/DX =    0.0                 !
 ! R5    R(2,5)                  1.1021         -DE/DX =    0.0                 !
 ! R6    R(3,6)                  1.0782         -DE/DX =    0.0                 !
 ! R7    R(3,7)                  1.0784         -DE/DX =    0.0                 !
 ! A1    A(2,1,8)              108.8172         -DE/DX =    0.0                 !
 ! A2    A(1,2,3)              108.7701         -DE/DX =    0.0                 !
 ! A3    A(1,2,4)              111.1549         -DE/DX =    0.0                 !
 ! A4    A(1,2,5)              110.2923         -DE/DX =    0.0                 !
 ! A5    A(3,2,4)              110.0131         -DE/DX =    0.0                 !
 ! A6    A(3,2,5)              110.1955         -DE/DX =    0.0                 !
 ! A7    A(4,2,5)              106.4043         -DE/DX =    0.0                 !
 ! A8    A(2,3,6)              120.3565         -DE/DX =    0.0                 !
 ! A9    A(2,3,7)              119.0875         -DE/DX =    0.0                 !
 ! A10   A(6,3,7)              119.8204         -DE/DX =    0.0                 !
 ! D1    D(8,1,2,3)            174.5661         -DE/DX =    0.0                 !
 ! D2    D(8,1,2,4)            -64.1629         -DE/DX =    0.0                 !
 ! D3    D(8,1,2,5)             53.6084         -DE/DX =    0.0                 !
 ! D4    D(1,2,3,6)            167.1614         -DE/DX =    0.0                 !
 ! D5    D(1,2,3,7)            -22.6807         -DE/DX =    0.0                 !
 ! D6    D(4,2,3,6)             45.1939         -DE/DX =    0.0                 !
 ! D7    D(4,2,3,7)           -144.6483         -DE/DX =    0.0                 !
 ! D8    D(5,2,3,6)            -71.8216         -DE/DX =    0.0                 !
 ! D9    D(5,2,3,7)             98.3363         -DE/DX =    0.0                 !
 --------------------------------------------------------------------------------
 GradGradGradGradGradGradGradGradGradGradGradGradGradGradGradGradGradGrad

 Leave Link  103 at Wed May 22 18:38:23 2019, MaxMem=   671088640 cpu:               3.2 elap:               0.2
 (Enter /shared/centos7/gaussian/g16/l9999.exe)

 ----------------------------------------------------------------------

 Electric dipole moment (input orientation):
 (Debye = 10**-18 statcoulomb cm , SI units = C m)
                  (au)            (Debye)         (10**-30 SI)
   Tot        0.686024D+00      0.174370D+01      0.581636D+01
   x          0.227439D+00      0.578092D+00      0.192831D+01
   y          0.470758D+00      0.119655D+01      0.399126D+01
   z         -0.444170D+00     -0.112897D+01     -0.376583D+01

 Dipole polarizability, Alpha (input orientation).
 (esu units = cm**3 , SI units = C**2 m**2 J**-1)
 Alpha(0;0):
               (au)            (10**-24 esu)      (10**-40 SI)
   iso        0.285338D+02      0.422827D+01      0.470459D+01
   aniso      0.914122D+01      0.135459D+01      0.150718D+01
   xx         0.268492D+02      0.397864D+01      0.442684D+01
   yx        -0.420056D+01     -0.622459D+00     -0.692579D+00
   yy         0.314026D+02      0.465338D+01      0.517759D+01
   zx        -0.162097D+01     -0.240203D+00     -0.267262D+00
   zy        -0.116044D+01     -0.171959D+00     -0.191330D+00
   zz         0.273495D+02      0.405278D+01      0.450933D+01

 ----------------------------------------------------------------------

 Dipole orientation:
     8         -1.56727171         -1.30251477         -2.15625352
     6         -0.20696541          0.58652417         -0.83626679
     6          1.35182803          2.01288403         -2.66223643
     1         -1.49156840          1.87599096          0.16053985
     1          1.00379010         -0.27983147          0.62021888
     1          2.22730865          3.77000372         -2.11703843
     1          1.85184991          1.13831670         -4.43371129
     1         -2.45370104         -2.33091101         -0.95600858

 Electric dipole moment (dipole orientation):
 (Debye = 10**-18 statcoulomb cm , SI units = C m)
                  (au)            (Debye)         (10**-30 SI)
   Tot        0.686024D+00      0.174370D+01      0.581636D+01
   x          0.000000D+00      0.000000D+00      0.000000D+00
   y          0.000000D+00      0.000000D+00      0.000000D+00
   z          0.686024D+00      0.174370D+01      0.581636D+01

 Dipole polarizability, Alpha (dipole orientation).
 (esu units = cm**3 , SI units = C**2 m**2 J**-1)
 Alpha(0;0):
               (au)            (10**-24 esu)      (10**-40 SI)
   iso        0.285338D+02      0.422827D+01      0.470459D+01
   aniso      0.914122D+01      0.135459D+01      0.150718D+01
   xx         0.271769D+02      0.402720D+01      0.448087D+01
   yx         0.434382D+01      0.643688D+00      0.716200D+00
   yy         0.294056D+02      0.435746D+01      0.484832D+01
   zx        -0.260317D+01     -0.385750D+00     -0.429204D+00
   zy        -0.889118D+00     -0.131754D+00     -0.146596D+00
   zz         0.290188D+02      0.430015D+01      0.478456D+01

 ----------------------------------------------------------------------

 Test job not archived.
 1\1\GINC-C0099\Freq\UM062X\CC-pVTZ\C2H5O1(2)\HARMS.N\22-May-2019\0\\#P
  Geom=AllCheck Guess=TCheck SCRF=Check Test GenChk UM062X/CC-pVTZ Freq
 \\Gaussian input prepared by ASE\\0,2\O,-1.2475049383,-0.1762153793,0.
 9367917076\C,-0.2060678928,-0.5102093626,0.0372275275\C,0.3476618127,-
 1.826235249,0.4183613436\H,-0.5713900304,-0.5416884366,-0.9979084256\H
 ,0.5841057534,0.2576214588,0.0652201346\H,1.004088633,-2.3562924139,-0
 .252899502\H,0.2199130749,-2.1755267425,1.4306052968\H,-1.549868089,0.
 7130590233,0.7434902326\\Version=EM64L-G16RevA.03\State=2-A\HF=-154.35
 35808\S2=0.7552\S2-1=0.\S2A=0.750021\RMSD=5.132e-10\RMSF=1.521e-05\Zer
 oPoint=0.0650299\Thermal=0.06982\Dipole=0.227439,0.4707584,-0.4441703\
 DipoleDeriv=-0.7972453,0.1533952,0.193945,0.1261225,-0.4292465,-0.1794
 747,0.2035941,-0.2088986,-0.612109,0.6779867,-0.1415314,-0.1646341,-0.
 0853953,0.3750537,0.1417499,-0.1826182,0.1745696,0.4696354,-0.2275417,
 -0.1278679,-0.1107855,-0.1159641,-0.1050587,-0.0554598,-0.1291309,-0.0
 309357,0.0269602,-0.0176133,0.0407245,-0.0684369,0.0182403,0.0162817,-
 0.0054329,-0.0166269,-0.0109722,-0.1834866,-0.1116769,-0.061628,0.0320
 46,-0.0863668,-0.1352396,0.0190795,0.0205549,-0.0419599,0.0273906,0.05
 39383,0.0934334,0.0605392,0.0660625,0.0411561,0.0029961,0.0665006,-0.0
 119315,0.0078938,0.1094401,0.0313138,0.0328383,0.053414,0.0428107,0.01
 52333,0.0191372,0.0515179,-0.0143225,0.3127121,0.0121604,0.0244881,0.0
 23887,0.1942427,0.0613088,0.0185891,0.0786104,0.2780382\Polar=26.84921
 7,-4.2005605,31.4025892,-1.6209727,-1.1604361,27.3495449\Quadrupole=-0
 .8590565,1.582127,-0.7230705,-1.6182989,0.2452078,-0.3591674\PG=C01 [X
 (C2H5O1)]\NImag=0\\0.27504059,-0.20596560,0.56263710,-0.12421443,-0.08
 224355,0.22204698,-0.16280987,0.04745824,0.08158445,0.49259156,0.01594
 281,-0.09086575,0.00252293,-0.00524070,0.51945388,0.09630432,-0.025422
 73,-0.14942715,0.01626782,-0.01267303,0.54281264,-0.01774148,0.0351520
 2,-0.00148403,-0.07488867,0.06206411,-0.00167811,0.24833390,0.01291670
 ,-0.01637279,-0.00152618,0.07332211,-0.20398903,0.04225099,-0.21145767
 ,0.44176317,0.01687650,-0.03084428,0.00624208,-0.01100072,0.05767282,-
 0.09692779,-0.17349594,-0.07168622,0.58564519,0.00429976,0.00400154,0.
 03616157,-0.08626658,-0.00137534,-0.08877914,-0.00029907,0.00040217,-0
 .00968068,0.09037845,0.00263438,0.00069233,-0.01101119,0.00011047,-0.0
 4744001,-0.00467376,0.00849409,-0.00406458,0.02972101,-0.00042296,0.05
 324047,0.00875712,-0.00580413,-0.02574034,-0.08302788,-0.00912538,-0.2
 5282981,-0.00465708,0.00547400,-0.00754258,0.08437503,0.00823722,0.288
 05043,-0.03068985,-0.01130249,0.01328808,-0.15669646,-0.10661570,-0.01
 228535,0.01075033,0.00548006,-0.00036363,-0.00818568,-0.01221737,-0.00
 413659,0.18511551,0.00960835,0.01089063,-0.00107371,-0.12345931,-0.163
 17111,-0.01225034,-0.01117314,-0.02749457,0.00320042,-0.00262333,0.000
 22287,-0.00071093,0.12675233,0.17944623,0.02821616,0.01408533,-0.00449
 619,-0.01214736,-0.01298755,-0.04896993,0.00485436,0.00953123,0.001717
 23,-0.02209885,-0.02162395,-0.00246970,0.00304477,0.01000769,0.0539840
 6,-0.00106471,0.00290914,0.00003942,-0.00270805,-0.00073219,0.00554740
 ,-0.13656316,0.11084810,0.12847799,0.00018871,-0.00033278,0.00027032,-
 0.00024463,0.00087064,0.00012138,0.13932050,0.00188266,-0.00568669,0.0
 0197345,0.01240563,-0.00261445,-0.01911710,0.10700509,-0.11576409,-0.0
 8084064,0.00006589,0.00078496,0.00097038,-0.00091568,-0.00011058,0.000
 30380,-0.11508969,0.11555517,-0.00127011,0.00221032,0.00055996,-0.0058
 0317,0.00427619,0.00648729,0.12624253,-0.08397201,-0.16911222,0.000183
 08,-0.00105356,0.00053577,0.00037497,0.00028774,0.00014640,-0.13384039
 ,0.09140377,0.16905176,0.00087516,-0.00151121,-0.00071823,0.00358980,0
 .00424245,-0.00823384,-0.02544266,0.00737368,0.04416637,-0.00134492,0.
 00212958,-0.00170799,-0.00057955,0.00037119,-0.00072407,0.00120314,-0.
 00655706,0.01455029,0.02161491,-0.00155763,0.00283456,-0.00141998,-0.0
 0269502,-0.00393440,0.02635690,0.00805849,-0.07343391,0.09482904,0.001
 05457,-0.00365804,0.00018228,0.00009628,-0.00117567,-0.00021880,0.0011
 6015,0.00752493,-0.01363287,-0.00572842,0.07145462,-0.00024386,-0.0002
 3869,0.00085740,0.00160412,-0.00132993,-0.00318164,0.04740262,0.100550
 75,-0.31666887,-0.00004005,0.00137248,0.00013845,-0.00027494,-0.000036
 68,-0.00056027,-0.00112150,0.00614577,-0.00847466,-0.04736558,-0.10601
 490,0.32764515,-0.06790959,0.12925837,-0.00465681,-0.01281172,0.031714
 55,-0.00714310,-0.00414919,0.00111486,0.00502011,0.00122932,-0.0003954
 1,0.00012706,0.00053032,-0.00034673,-0.00126638,-0.00013179,0.00120316
 ,-0.00043722,0.00008412,-0.00038843,0.00003919,0.08315853,0.16453833,-
 0.46412938,0.09277824,-0.00190142,-0.00743912,0.00552907,0.00185701,-0
 .00064421,-0.00205214,-0.00110255,0.00022200,0.00077656,-0.00127743,0.
 00139219,0.00090225,0.00036663,0.00031074,0.00048044,-0.00032020,0.000
 38792,-0.00044881,-0.16216038,0.46989987,-0.02442569,0.12825774,-0.050
 04274,0.01252273,-0.02835605,0.00203639,0.00281565,-0.00062255,-0.0033
 5304,-0.00012098,-0.00096824,-0.00014222,0.00035269,0.00057582,0.00064
 840,0.00050538,-0.00083943,0.00080570,0.00003304,-0.00008167,0.0002444
 4,0.00831717,-0.09796561,0.04980307\\-0.00001724,0.00001043,0.00001560
 ,0.00004422,-0.00002548,-0.00002171,0.00001366,0.00000135,-0.00002152,
 -0.00000242,0.00000915,0.00001021,-0.00001314,-0.00000048,0.00000962,-
 0.00000602,-0.00000942,0.00000758,-0.00001071,-0.00000245,-0.00000524,
 -0.00000835,0.00001689,0.00000546\\\@


 THE ONLY EXISTING THINGS ARE ATOMS AND EMPTY SPACE;
 ALL ELSE IS MERE OPINION. -- DEMOCRITUS OF ABDERA D. 370 B.C.
 EXPERIMENTS ARE THE ONLY MEANS OF KNOWLEDGE AT OUR DISPOSAL
 THE REST IS POETRY, IMAGINATION. -- MAX PLANCK
 Job cpu time:       0 days  0 hours 31 minutes 36.6 seconds.
 Elapsed time:       0 days  0 hours  1 minutes 35.8 seconds.
 File lengths (MBytes):  RWF=   1312 Int=      0 D2E=      0 Chk=     32 Scr=     32
 Normal termination of Gaussian 16 at Wed May 22 18:38:24 2019.
