 Entering Gaussian System, Link 0=g16
 Input=/scratch/harms.n//autotst-2.0-QMScratch/ts/CCO+[O]O_OO+[CH2]CO/conformers/CCO+[O]O_OO+[CH2]CO_forward_1.com
 Output=/scratch/harms.n//autotst-2.0-QMScratch/ts/CCO+[O]O_OO+[CH2]CO/conformers/CCO+[O]O_OO+[CH2]CO_forward_1.log
 Initial command:
 /shared/centos7/gaussian/g16/l1.exe "/scratch/harms.n/gauss_scrdir/Gau-37313.inp" -scrdir="/scratch/harms.n/gauss_scrdir/"
 Entering Link 1 = /shared/centos7/gaussian/g16/l1.exe PID=     37314.
  
 Copyright (c) 1988,1990,1992,1993,1995,1998,2003,2009,2016,
            Gaussian, Inc.  All Rights Reserved.
  
 This is part of the Gaussian(R) 16 program.  It is based on
 the Gaussian(R) 09 system (copyright 2009, Gaussian, Inc.),
 the Gaussian(R) 03 system (copyright 2003, Gaussian, Inc.),
 the Gaussian(R) 98 system (copyright 1998, Gaussian, Inc.),
 the Gaussian(R) 94 system (copyright 1995, Gaussian, Inc.),
 the Gaussian 92(TM) system (copyright 1992, Gaussian, Inc.),
 the Gaussian 90(TM) system (copyright 1990, Gaussian, Inc.),
 the Gaussian 88(TM) system (copyright 1988, Gaussian, Inc.),
 the Gaussian 86(TM) system (copyright 1986, Carnegie Mellon
 University), and the Gaussian 82(TM) system (copyright 1983,
 Carnegie Mellon University). Gaussian is a federally registered
 trademark of Gaussian, Inc.
  
 This software contains proprietary and confidential information,
 including trade secrets, belonging to Gaussian, Inc.
  
 This software is provided under written license and may be
 used, copied, transmitted, or stored only in accord with that
 written license.
  
 The following legend is applicable only to US Government
 contracts under FAR:
  
                    RESTRICTED RIGHTS LEGEND
  
 Use, reproduction and disclosure by the US Government is
 subject to restrictions as set forth in subparagraphs (a)
 and (c) of the Commercial Computer Software - Restricted
 Rights clause in FAR 52.227-19.
  
 Gaussian, Inc.
 340 Quinnipiac St., Bldg. 40, Wallingford CT 06492
  
  
 ---------------------------------------------------------------
 Warning -- This program may not be used in any manner that
 competes with the business of Gaussian, Inc. or will provide
 assistance to any competitor of Gaussian, Inc.  The licensee
 of this program is prohibited from giving any competitor of
 Gaussian, Inc. access to this program.  By using this program,
 the user acknowledges that Gaussian, Inc. is engaged in the
 business of creating and licensing software in the field of
 computational chemistry and represents and warrants to the
 licensee that it is not a competitor of Gaussian, Inc. and that
 it will not use this program in any manner prohibited above.
 ---------------------------------------------------------------
  

 Cite this work as:
 Gaussian 16, Revision A.03,
 M. J. Frisch, G. W. Trucks, H. B. Schlegel, G. E. Scuseria, 
 M. A. Robb, J. R. Cheeseman, G. Scalmani, V. Barone, 
 G. A. Petersson, H. Nakatsuji, X. Li, M. Caricato, A. V. Marenich, 
 J. Bloino, B. G. Janesko, R. Gomperts, B. Mennucci, H. P. Hratchian, 
 J. V. Ortiz, A. F. Izmaylov, J. L. Sonnenberg, D. Williams-Young, 
 F. Ding, F. Lipparini, F. Egidi, J. Goings, B. Peng, A. Petrone, 
 T. Henderson, D. Ranasinghe, V. G. Zakrzewski, J. Gao, N. Rega, 
 G. Zheng, W. Liang, M. Hada, M. Ehara, K. Toyota, R. Fukuda, 
 J. Hasegawa, M. Ishida, T. Nakajima, Y. Honda, O. Kitao, H. Nakai, 
 T. Vreven, K. Throssell, J. A. Montgomery, Jr., J. E. Peralta, 
 F. Ogliaro, M. J. Bearpark, J. J. Heyd, E. N. Brothers, K. N. Kudin, 
 V. N. Staroverov, T. A. Keith, R. Kobayashi, J. Normand, 
 K. Raghavachari, A. P. Rendell, J. C. Burant, S. S. Iyengar, 
 J. Tomasi, M. Cossi, J. M. Millam, M. Klene, C. Adamo, R. Cammi, 
 J. W. Ochterski, R. L. Martin, K. Morokuma, O. Farkas, 
 J. B. Foresman, and D. J. Fox, Gaussian, Inc., Wallingford CT, 2016.
 
 ******************************************
 Gaussian 16:  EM64L-G16RevA.03 25-Dec-2016
                22-Jun-2019 
 ******************************************
 %nprocshared=20
 Will use up to   20 processors via shared memory.
 %mem=5GB
 ----------------------------------------------------------------------
 #p m062x/cc-pVTZ opt=(ts,calcfc,noeigentest,maxcycles=900) freq scf=(m
 axcycle=900) IOP(7/33=1,2/16=3)
 ----------------------------------------------------------------------
 1/5=1,6=900,10=4,11=1,18=20,26=3,38=1/1,3;
 2/9=110,12=2,16=3,17=6,18=5,40=1/2;
 3/5=16,6=1,11=2,25=1,30=1,71=2,74=-55,140=1/1,2,3;
 4//1;
 5/5=2,7=900,38=5/2;
 8/6=4,10=90,11=11/1;
 11/6=1,8=1,9=11,15=111,16=1/1,2,10;
 10/6=1,13=1/2;
 6/7=2,8=2,9=2,10=2,28=1/1;
 7/10=1,18=20,25=1,33=1/1,2,3,16;
 1/5=1,6=900,10=4,11=1,18=20,26=3/3(2);
 2/9=110,16=3/2;
 99//99;
 2/9=110,16=3/2;
 3/5=16,6=1,11=2,25=1,30=1,71=1,74=-55/1,2,3;
 4/5=5,16=3,69=1/1;
 5/5=2,7=900,38=5/2;
 7/33=1/1,2,3,16;
 1/5=1,6=900,11=1,18=20,26=3/3(-5);
 2/9=110,16=3/2;
 6/7=2,8=2,9=2,10=2,19=2,28=1/1;
 99/9=1/99;
 Leave Link    1 at Sat Jun 22 12:30:20 2019, MaxMem=   671088640 cpu:              12.6 elap:               0.7
 (Enter /shared/centos7/gaussian/g16/l101.exe)
 ------------------------------
 Gaussian input prepared by ASE
 ------------------------------
 Symbolic Z-matrix:
 Charge =  0 Multiplicity = 2
 O                    -2.00042  -0.60886  -0.49519 
 O                     1.87093  -0.63701   0.35744 
 O                     1.65926   0.17322  -0.75009 
 C                    -1.21283  -0.1298    0.57308 
 C                    -0.37791   1.05785   0.20163 
 H                    -1.83921   0.12241   1.44187 
 H                    -0.56676  -0.95412   0.87586 
 H                     0.56236   0.54686  -0.65161 
 H                    -0.88442   1.82648  -0.37966 
 H                     0.23609   1.46093   1.00077 
 H                    -2.60397   0.0863   -0.76919 
 H                     2.40215  -0.07601   0.9364 
 
 Add virtual bond connecting atoms H8         and O3         Dist= 2.20D+00.
 Add virtual bond connecting atoms H8         and C5         Dist= 2.59D+00.
 ITRead=  0  0  0  0  0  0  0  0  0  0  0  0
 MicOpt= -1 -1 -1 -1 -1 -1 -1 -1 -1 -1 -1 -1
 NAtoms=     12 NQM=       12 NQMF=       0 NMMI=      0 NMMIF=      0
                NMic=       0 NMicF=      0.
                    Isotopes and Nuclear Properties:
 (Nuclear quadrupole moments (NQMom) in fm**2, nuclear magnetic moments (NMagM)
  in nuclear magnetons)

  Atom         1           2           3           4           5           6           7           8           9          10
 IAtWgt=          16          16          16          12          12           1           1           1           1           1
 AtmWgt=  15.9949146  15.9949146  15.9949146  12.0000000  12.0000000   1.0078250   1.0078250   1.0078250   1.0078250   1.0078250
 NucSpn=           0           0           0           0           0           1           1           1           1           1
 AtZEff=  -0.0000000  -0.0000000  -0.0000000  -0.0000000  -0.0000000  -0.0000000  -0.0000000  -0.0000000  -0.0000000  -0.0000000
 NQMom=    0.0000000   0.0000000   0.0000000   0.0000000   0.0000000   0.0000000   0.0000000   0.0000000   0.0000000   0.0000000
 NMagM=    0.0000000   0.0000000   0.0000000   0.0000000   0.0000000   2.7928460   2.7928460   2.7928460   2.7928460   2.7928460
 AtZNuc=   8.0000000   8.0000000   8.0000000   6.0000000   6.0000000   1.0000000   1.0000000   1.0000000   1.0000000   1.0000000

  Atom        11          12
 IAtWgt=           1           1
 AtmWgt=   1.0078250   1.0078250
 NucSpn=           1           1
 AtZEff=  -0.0000000  -0.0000000
 NQMom=    0.0000000   0.0000000
 NMagM=    2.7928460   2.7928460
 AtZNuc=   1.0000000   1.0000000
 Leave Link  101 at Sat Jun 22 12:30:20 2019, MaxMem=   671088640 cpu:               4.8 elap:               0.3
 (Enter /shared/centos7/gaussian/g16/l103.exe)

 GradGradGradGradGradGradGradGradGradGradGradGradGradGradGradGradGradGrad
 Berny optimization.
 Initialization pass.
                           ----------------------------
                           !    Initial Parameters    !
                           ! (Angstroms and Degrees)  !
 --------------------------                            --------------------------
 ! Name  Definition              Value          Derivative Info.                !
 --------------------------------------------------------------------------------
 ! R1    R(1,4)                  1.411          calculate D2E/DX2 analytically  !
 ! R2    R(1,11)                 0.9605         calculate D2E/DX2 analytically  !
 ! R3    R(2,3)                  1.3885         calculate D2E/DX2 analytically  !
 ! R4    R(2,12)                 0.9655         calculate D2E/DX2 analytically  !
 ! R5    R(3,8)                  1.163          calculate D2E/DX2 analytically  !
 ! R6    R(4,5)                  1.4985         calculate D2E/DX2 analytically  !
 ! R7    R(4,6)                  1.1003         calculate D2E/DX2 analytically  !
 ! R8    R(4,7)                  1.0902         calculate D2E/DX2 analytically  !
 ! R9    R(5,8)                  1.3687         calculate D2E/DX2 analytically  !
 ! R10   R(5,9)                  1.0887         calculate D2E/DX2 analytically  !
 ! R11   R(5,10)                 1.0854         calculate D2E/DX2 analytically  !
 ! A1    A(4,1,11)             108.7228         calculate D2E/DX2 analytically  !
 ! A2    A(3,2,12)             102.8933         calculate D2E/DX2 analytically  !
 ! A3    A(2,3,8)              105.2906         calculate D2E/DX2 analytically  !
 ! A4    A(1,4,5)              113.1042         calculate D2E/DX2 analytically  !
 ! A5    A(1,4,6)              110.9673         calculate D2E/DX2 analytically  !
 ! A6    A(1,4,7)              106.5186         calculate D2E/DX2 analytically  !
 ! A7    A(5,4,6)              109.3435         calculate D2E/DX2 analytically  !
 ! A8    A(5,4,7)              109.7501         calculate D2E/DX2 analytically  !
 ! A9    A(6,4,7)              106.9396         calculate D2E/DX2 analytically  !
 ! A10   A(4,5,8)              103.9692         calculate D2E/DX2 analytically  !
 ! A11   A(4,5,9)              115.6377         calculate D2E/DX2 analytically  !
 ! A12   A(4,5,10)             115.2774         calculate D2E/DX2 analytically  !
 ! A13   A(8,5,9)              104.4982         calculate D2E/DX2 analytically  !
 ! A14   A(8,5,10)             102.0649         calculate D2E/DX2 analytically  !
 ! A15   A(9,5,10)             113.2109         calculate D2E/DX2 analytically  !
 ! A16   A(3,8,5)              145.1562         calculate D2E/DX2 analytically  !
 ! D1    D(11,1,4,5)           -61.1629         calculate D2E/DX2 analytically  !
 ! D2    D(11,1,4,6)            62.1449         calculate D2E/DX2 analytically  !
 ! D3    D(11,1,4,7)           178.1916         calculate D2E/DX2 analytically  !
 ! D4    D(12,2,3,8)          -103.6975         calculate D2E/DX2 analytically  !
 ! D5    D(2,3,8,5)             44.7916         calculate D2E/DX2 analytically  !
 ! D6    D(1,4,5,8)            -69.6777         calculate D2E/DX2 analytically  !
 ! D7    D(1,4,5,9)             44.2471         calculate D2E/DX2 analytically  !
 ! D8    D(1,4,5,10)           179.4882         calculate D2E/DX2 analytically  !
 ! D9    D(6,4,5,8)            166.1226         calculate D2E/DX2 analytically  !
 ! D10   D(6,4,5,9)            -79.9526         calculate D2E/DX2 analytically  !
 ! D11   D(6,4,5,10)            55.2884         calculate D2E/DX2 analytically  !
 ! D12   D(7,4,5,8)             49.1133         calculate D2E/DX2 analytically  !
 ! D13   D(7,4,5,9)            163.0381         calculate D2E/DX2 analytically  !
 ! D14   D(7,4,5,10)           -61.7209         calculate D2E/DX2 analytically  !
 ! D15   D(4,5,8,3)            -99.7343         calculate D2E/DX2 analytically  !
 ! D16   D(9,5,8,3)            138.6072         calculate D2E/DX2 analytically  !
 ! D17   D(10,5,8,3)            20.4725         calculate D2E/DX2 analytically  !
 --------------------------------------------------------------------------------
 Trust Radius=3.00D-01 FncErr=1.00D-07 GrdErr=1.00D-06 EigMax=2.50D+02 EigMin=1.00D-04
 Number of steps in this run=    100 maximum allowed number of steps=    100.
 Search for a saddle point of order  1.
 GradGradGradGradGradGradGradGradGradGradGradGradGradGradGradGradGradGrad

 Leave Link  103 at Sat Jun 22 12:30:20 2019, MaxMem=   671088640 cpu:               1.0 elap:               0.1
 (Enter /shared/centos7/gaussian/g16/l202.exe)
                          Input orientation:                          
 ---------------------------------------------------------------------
 Center     Atomic      Atomic             Coordinates (Angstroms)
 Number     Number       Type             X           Y           Z
 ---------------------------------------------------------------------
      1          8           0       -2.000420   -0.608856   -0.495186
      2          8           0        1.870928   -0.637008    0.357442
      3          8           0        1.659261    0.173216   -0.750092
      4          6           0       -1.212825   -0.129797    0.573080
      5          6           0       -0.377905    1.057853    0.201629
      6          1           0       -1.839212    0.122406    1.441872
      7          1           0       -0.566764   -0.954119    0.875863
      8          1           0        0.562356    0.546864   -0.651607
      9          1           0       -0.884415    1.826478   -0.379664
     10          1           0        0.236091    1.460933    1.000767
     11          1           0       -2.603971    0.086296   -0.769188
     12          1           0        2.402153   -0.076008    0.936397
 ---------------------------------------------------------------------
                    Distance matrix (angstroms):
                    1          2          3          4          5
     1  O    0.000000
     2  O    3.964228   0.000000
     3  O    3.750984   1.388487   0.000000
     4  C    1.411026   3.132618   3.176709   0.000000
     5  C    2.428173   2.820298   2.416278   1.498526   0.000000
     6  H    2.076758   3.939269   4.128753   1.100348   2.132764
     7  H    2.013542   2.512302   2.978221   1.090220   2.130326
     8  H    2.815666   2.032755   1.162976   2.260309   1.368653
     9  H    2.681355   3.768820   3.056269   2.200588   1.088687
    10  H    3.394685   2.736406   2.597910   2.193786   1.085397
    11  H    0.960514   4.670887   4.264161   1.945165   2.615679
    12  H    4.660044   0.965458   1.859636   3.633588   3.090995
                    6          7          8          9         10
     6  H    0.000000
     7  H    1.760226   0.000000
     8  H    3.214086   2.420956   0.000000
     9  H    2.670860   3.067404   1.950516   0.000000
    10  H    2.508607   2.548069   1.916327   1.815144   0.000000
    11  H    2.339860   2.817600   3.201808   2.477264   3.617778
    12  H    4.275985   3.096645   2.508900   4.019079   2.656719
                   11         12
    11  H    0.000000
    12  H    5.291185   0.000000
 Stoichiometry    C2H7O3(2)
 Framework group  C1[X(C2H7O3)]
 Deg. of freedom    30
 Full point group                 C1      NOp   1
 Largest Abelian subgroup         C1      NOp   1
 Largest concise Abelian subgroup C1      NOp   1
                         Standard orientation:                         
 ---------------------------------------------------------------------
 Center     Atomic      Atomic             Coordinates (Angstroms)
 Number     Number       Type             X           Y           Z
 ---------------------------------------------------------------------
      1          8           0       -2.000420   -0.608856   -0.495186
      2          8           0        1.870928   -0.637008    0.357442
      3          8           0        1.659261    0.173216   -0.750092
      4          6           0       -1.212825   -0.129797    0.573080
      5          6           0       -0.377905    1.057853    0.201629
      6          1           0       -1.839212    0.122406    1.441872
      7          1           0       -0.566764   -0.954119    0.875863
      8          1           0        0.562356    0.546864   -0.651607
      9          1           0       -0.884415    1.826478   -0.379664
     10          1           0        0.236091    1.460933    1.000767
     11          1           0       -2.603971    0.086296   -0.769188
     12          1           0        2.402153   -0.076008    0.936397
 ---------------------------------------------------------------------
 Rotational constants (GHZ):           8.6519452           2.2352179           2.1592821
 Leave Link  202 at Sat Jun 22 12:30:20 2019, MaxMem=   671088640 cpu:               0.4 elap:               0.0
 (Enter /shared/centos7/gaussian/g16/l301.exe)
 Standard basis: CC-pVTZ (5D, 7F)
 Ernie: Thresh=  0.10000D-02 Tol=  0.10000D-05 Strict=F.
 Ernie:  15 primitive shells out of 186 were deleted.
 There are   280 symmetry adapted cartesian basis functions of A   symmetry.
 There are   248 symmetry adapted basis functions of A   symmetry.
   248 basis functions,   379 primitive gaussians,   280 cartesian basis functions
    22 alpha electrons       21 beta electrons
       nuclear repulsion energy       187.8906667020 Hartrees.
 IExCor= 4336 DFT=T Ex+Corr=M062X ExCW=0 ScaHFX=  0.540000
 ScaDFX=  1.000000  1.000000  1.000000  1.000000 ScalE2=  1.000000  1.000000
 IRadAn=      5 IRanWt=     -1 IRanGd=            0 ICorTp=0 IEmpDi=  4
 NAtoms=   12 NActive=   12 NUniq=   12 SFac= 1.00D+00 NAtFMM=   60 NAOKFM=F Big=F
 Integral buffers will be    131072 words long.
 Raffenetti 2 integral format.
 Two-electron integral symmetry is turned on.
 Leave Link  301 at Sat Jun 22 12:30:20 2019, MaxMem=   671088640 cpu:               1.2 elap:               0.1
 (Enter /shared/centos7/gaussian/g16/l302.exe)
 NPDir=0 NMtPBC=     1 NCelOv=     1 NCel=       1 NClECP=     1 NCelD=      1
         NCelK=      1 NCelE2=     1 NClLst=     1 CellRange=     0.0.
 One-electron integrals computed using PRISM.
 One-electron integral symmetry used in STVInt
 NBasis=   248 RedAO= T EigKep=  8.40D-04  NBF=   248
 NBsUse=   248 1.00D-06 EigRej= -1.00D+00 NBFU=   248
 Precomputing XC quadrature grid using
 IXCGrd= 4 IRadAn=           5 IRanWt=          -1 IRanGd=           0 AccXCQ= 0.00D+00.
 Generated NRdTot=       0 NPtTot=           0 NUsed=           0 NTot=          32
 NSgBfM=   280   280   280   280   280 MxSgAt=    12 MxSgA2=    12.
 Leave Link  302 at Sat Jun 22 12:30:21 2019, MaxMem=   671088640 cpu:               4.4 elap:               0.2
 (Enter /shared/centos7/gaussian/g16/l303.exe)
 DipDrv:  MaxL=1.
 Leave Link  303 at Sat Jun 22 12:30:21 2019, MaxMem=   671088640 cpu:               0.6 elap:               0.1
 (Enter /shared/centos7/gaussian/g16/l401.exe)
 ExpMin= 1.03D-01 ExpMax= 1.53D+04 ExpMxC= 5.22D+02 IAcc=3 IRadAn=         5 AccDes= 0.00D+00
 Harris functional with IExCor= 1009 and IRadAn=       5 diagonalized for initial guess.
 HarFok:  IExCor= 1009 AccDes= 0.00D+00 IRadAn=         5 IDoV= 1 UseB2=F ITyADJ=14
 ICtDFT=  3500011 ScaDFX=  1.000000  1.000000  1.000000  1.000000
 FoFCou: FMM=F IPFlag=           0 FMFlag=      100000 FMFlg1=           0
         NFxFlg=           0 DoJE=T BraDBF=F KetDBF=T FulRan=T
         wScrn=  0.000000 ICntrl=       500 IOpCl=  0 I1Cent=   200000004 NGrid=           0
         NMat0=    1 NMatS0=      1 NMatT0=    0 NMatD0=    1 NMtDS0=    0 NMtDT0=    0
 Petite list used in FoFCou.
 Harris En= -305.774296602373    
 JPrj=0 DoOrth=F DoCkMO=F.
 Initial guess <Sx>= 0.0000 <Sy>= 0.0000 <Sz>= 0.5000 <S**2>= 0.7500 S= 0.5000
 Leave Link  401 at Sat Jun 22 12:30:21 2019, MaxMem=   671088640 cpu:              13.4 elap:               0.7
 (Enter /shared/centos7/gaussian/g16/l502.exe)
 Integral symmetry usage will be decided dynamically.
 UHF open shell SCF:
 Using DIIS extrapolation, IDIIS=  1040.
 NGot=   671088640 LenX=   670923676 LenY=   670844835
 Requested convergence on RMS density matrix=1.00D-08 within 900 cycles.
 Requested convergence on MAX density matrix=1.00D-06.
 Requested convergence on             energy=1.00D-06.
 No special actions if energy rises.
 Fock matrices will be formed incrementally for  20 cycles.
 Integral accuracy reduced to 1.0D-05 until final iterations.

 Cycle   1  Pass 0  IDiag  1:
 FoFJK:  IHMeth= 1 ICntrl=       0 DoSepK=F KAlg= 0 I1Cent=           0 FoldK=F
 IRaf= 970000000 NMat=       1 IRICut=       1 DoRegI=T DoRafI=F ISym2E= 0 IDoP0=0 IntGTp=1.
 FoFCou: FMM=F IPFlag=           0 FMFlag=      100000 FMFlg1=           0
         NFxFlg=           0 DoJE=F BraDBF=F KetDBF=F FulRan=T
         wScrn=  0.000000 ICntrl=         0 IOpCl=  1 I1Cent=           0 NGrid=           0
         NMat0=    1 NMatS0=      1 NMatT0=    0 NMatD0=    1 NMtDS0=    0 NMtDT0=    0
 Symmetry not used in FoFCou.
 E= -305.737265027984    
 DIIS: error= 1.97D-02 at cycle   1 NSaved=   1.
 NSaved= 1 IEnMin= 1 EnMin= -305.737265027984     IErMin= 1 ErrMin= 1.97D-02
 ErrMax= 1.97D-02  0.00D+00 EMaxC= 1.00D-01 BMatC= 8.21D-01 BMatP= 8.21D-01
 IDIUse=3 WtCom= 8.03D-01 WtEn= 1.97D-01
 Coeff-Com:  0.100D+01
 Coeff-En:   0.100D+01
 Coeff:      0.100D+01
 Gap=     0.339 Goal=   None    Shift=    0.000
 Gap=     0.332 Goal=   None    Shift=    0.000
 GapD=    0.332 DampG=1.000 DampE=0.500 DampFc=0.5000 IDamp=-1.
 Damping current iteration by 5.00D-01
 RMSDP=2.37D-03 MaxDP=1.62D-01              OVMax= 2.36D-01

 Cycle   2  Pass 0  IDiag  1:
 RMSU=  1.19D-03    CP:  1.00D+00
 E= -305.812817856266     Delta-E=       -0.075552828282 Rises=F Damp=T
 DIIS: error= 7.03D-03 at cycle   2 NSaved=   2.
 NSaved= 2 IEnMin= 2 EnMin= -305.812817856266     IErMin= 2 ErrMin= 7.03D-03
 ErrMax= 7.03D-03  0.00D+00 EMaxC= 1.00D-01 BMatC= 7.73D-02 BMatP= 8.21D-01
 IDIUse=3 WtCom= 9.30D-01 WtEn= 7.03D-02
 Coeff-Com: -0.100D+00 0.110D+01
 Coeff-En:   0.000D+00 0.100D+01
 Coeff:     -0.934D-01 0.109D+01
 Gap=     0.346 Goal=   None    Shift=    0.000
 Gap=     0.292 Goal=   None    Shift=    0.000
 RMSDP=5.54D-04 MaxDP=2.72D-02 DE=-7.56D-02 OVMax= 7.69D-02

 Cycle   3  Pass 0  IDiag  1:
 RMSU=  5.35D-04    CP:  1.01D+00  8.86D-01
 E= -305.886433790604     Delta-E=       -0.073615934338 Rises=F Damp=F
 DIIS: error= 3.26D-03 at cycle   3 NSaved=   3.
 NSaved= 3 IEnMin= 3 EnMin= -305.886433790604     IErMin= 3 ErrMin= 3.26D-03
 ErrMax= 3.26D-03  0.00D+00 EMaxC= 1.00D-01 BMatC= 1.74D-02 BMatP= 7.73D-02
 IDIUse=3 WtCom= 9.67D-01 WtEn= 3.26D-02
 Coeff-Com: -0.896D-01 0.334D+00 0.756D+00
 Coeff-En:   0.000D+00 0.000D+00 0.100D+01
 Coeff:     -0.867D-01 0.323D+00 0.764D+00
 Gap=     0.347 Goal=   None    Shift=    0.000
 Gap=     0.268 Goal=   None    Shift=    0.000
 RMSDP=2.11D-04 MaxDP=7.88D-03 DE=-7.36D-02 OVMax= 3.17D-02

 Cycle   4  Pass 0  IDiag  1:
 RMSU=  1.87D-04    CP:  1.00D+00  9.52D-01  8.93D-01
 E= -305.889338039601     Delta-E=       -0.002904248997 Rises=F Damp=F
 DIIS: error= 1.43D-03 at cycle   4 NSaved=   4.
 NSaved= 4 IEnMin= 4 EnMin= -305.889338039601     IErMin= 4 ErrMin= 1.43D-03
 ErrMax= 1.43D-03  0.00D+00 EMaxC= 1.00D-01 BMatC= 4.50D-03 BMatP= 1.74D-02
 IDIUse=3 WtCom= 9.86D-01 WtEn= 1.43D-02
 Coeff-Com: -0.300D-01 0.697D-01 0.370D+00 0.590D+00
 Coeff-En:   0.000D+00 0.000D+00 0.136D-02 0.999D+00
 Coeff:     -0.296D-01 0.687D-01 0.365D+00 0.596D+00
 Gap=     0.343 Goal=   None    Shift=    0.000
 Gap=     0.272 Goal=   None    Shift=    0.000
 RMSDP=8.51D-05 MaxDP=3.73D-03 DE=-2.90D-03 OVMax= 1.03D-02

 Cycle   5  Pass 0  IDiag  1:
 RMSU=  6.32D-05    CP:  1.00D+00  9.49D-01  9.81D-01  8.31D-01
 E= -305.890211752138     Delta-E=       -0.000873712537 Rises=F Damp=F
 DIIS: error= 5.22D-04 at cycle   5 NSaved=   5.
 NSaved= 5 IEnMin= 5 EnMin= -305.890211752138     IErMin= 5 ErrMin= 5.22D-04
 ErrMax= 5.22D-04  0.00D+00 EMaxC= 1.00D-01 BMatC= 3.83D-04 BMatP= 4.50D-03
 IDIUse=3 WtCom= 9.95D-01 WtEn= 5.22D-03
 Coeff-Com: -0.129D-02-0.908D-02 0.677D-01 0.217D+00 0.725D+00
 Coeff-En:   0.000D+00 0.000D+00 0.000D+00 0.000D+00 0.100D+01
 Coeff:     -0.129D-02-0.903D-02 0.673D-01 0.216D+00 0.727D+00
 Gap=     0.345 Goal=   None    Shift=    0.000
 Gap=     0.273 Goal=   None    Shift=    0.000
 RMSDP=4.35D-05 MaxDP=1.58D-03 DE=-8.74D-04 OVMax= 7.77D-03

 Cycle   6  Pass 0  IDiag  1:
 RMSU=  2.68D-05    CP:  1.00D+00  9.41D-01  1.01D+00  9.72D-01  1.19D+00
 E= -305.890363633055     Delta-E=       -0.000151880917 Rises=F Damp=F
 DIIS: error= 4.44D-04 at cycle   6 NSaved=   6.
 NSaved= 6 IEnMin= 6 EnMin= -305.890363633055     IErMin= 6 ErrMin= 4.44D-04
 ErrMax= 4.44D-04  0.00D+00 EMaxC= 1.00D-01 BMatC= 1.26D-04 BMatP= 3.83D-04
 IDIUse=3 WtCom= 9.96D-01 WtEn= 4.44D-03
 Coeff-Com:  0.834D-02-0.236D-01-0.717D-01-0.855D-01 0.325D+00 0.848D+00
 Coeff-En:   0.000D+00 0.000D+00 0.000D+00 0.000D+00 0.000D+00 0.100D+01
 Coeff:      0.831D-02-0.235D-01-0.714D-01-0.851D-01 0.323D+00 0.848D+00
 Gap=     0.346 Goal=   None    Shift=    0.000
 Gap=     0.275 Goal=   None    Shift=    0.000
 RMSDP=3.55D-05 MaxDP=1.17D-03 DE=-1.52D-04 OVMax= 6.74D-03

 Cycle   7  Pass 0  IDiag  1:
 RMSU=  1.59D-05    CP:  1.00D+00  9.38D-01  1.03D+00  1.07D+00  1.55D+00
                    CP:  1.16D+00
 E= -305.890440040605     Delta-E=       -0.000076407550 Rises=F Damp=F
 DIIS: error= 1.47D-04 at cycle   7 NSaved=   7.
 NSaved= 7 IEnMin= 7 EnMin= -305.890440040605     IErMin= 7 ErrMin= 1.47D-04
 ErrMax= 1.47D-04  0.00D+00 EMaxC= 1.00D-01 BMatC= 2.88D-05 BMatP= 1.26D-04
 IDIUse=3 WtCom= 9.99D-01 WtEn= 1.47D-03
 Coeff-Com:  0.316D-02-0.515D-02-0.415D-01-0.103D+00-0.110D+00 0.343D+00
 Coeff-Com:  0.914D+00
 Coeff-En:   0.000D+00 0.000D+00 0.000D+00 0.000D+00 0.000D+00 0.000D+00
 Coeff-En:   0.100D+01
 Coeff:      0.315D-02-0.514D-02-0.415D-01-0.103D+00-0.110D+00 0.342D+00
 Coeff:      0.914D+00
 Gap=     0.346 Goal=   None    Shift=    0.000
 Gap=     0.276 Goal=   None    Shift=    0.000
 RMSDP=2.26D-05 MaxDP=6.10D-04 DE=-7.64D-05 OVMax= 4.92D-03

 Cycle   8  Pass 0  IDiag  1:
 RMSU=  6.86D-06    CP:  1.00D+00  9.37D-01  1.04D+00  1.12D+00  1.77D+00
                    CP:  1.53D+00  1.28D+00
 E= -305.890462452443     Delta-E=       -0.000022411838 Rises=F Damp=F
 DIIS: error= 6.03D-05 at cycle   8 NSaved=   8.
 NSaved= 8 IEnMin= 8 EnMin= -305.890462452443     IErMin= 8 ErrMin= 6.03D-05
 ErrMax= 6.03D-05  0.00D+00 EMaxC= 1.00D-01 BMatC= 2.55D-06 BMatP= 2.88D-05
 IDIUse=1 WtCom= 1.00D+00 WtEn= 0.00D+00
 Coeff-Com: -0.191D-02 0.437D-02 0.216D-01 0.333D-01-0.241D-02-0.192D+00
 Coeff-Com: -0.223D+00 0.136D+01
 Coeff:     -0.191D-02 0.437D-02 0.216D-01 0.333D-01-0.241D-02-0.192D+00
 Coeff:     -0.223D+00 0.136D+01
 Gap=     0.346 Goal=   None    Shift=    0.000
 Gap=     0.276 Goal=   None    Shift=    0.000
 RMSDP=1.02D-05 MaxDP=3.19D-04 DE=-2.24D-05 OVMax= 2.46D-03

 Cycle   9  Pass 0  IDiag  1:
 RMSU=  3.08D-06    CP:  1.00D+00  9.37D-01  1.05D+00  1.13D+00  1.84D+00
                    CP:  1.66D+00  1.60D+00  1.75D+00
 E= -305.890466682896     Delta-E=       -0.000004230453 Rises=F Damp=F
 DIIS: error= 3.26D-05 at cycle   9 NSaved=   9.
 NSaved= 9 IEnMin= 9 EnMin= -305.890466682896     IErMin= 9 ErrMin= 3.26D-05
 ErrMax= 3.26D-05  0.00D+00 EMaxC= 1.00D-01 BMatC= 6.61D-07 BMatP= 2.55D-06
 IDIUse=1 WtCom= 1.00D+00 WtEn= 0.00D+00
 Coeff-Com: -0.858D-03 0.164D-02 0.124D-01 0.247D-01 0.235D-01-0.108D+00
 Coeff-Com: -0.212D+00 0.302D+00 0.957D+00
 Coeff:     -0.858D-03 0.164D-02 0.124D-01 0.247D-01 0.235D-01-0.108D+00
 Coeff:     -0.212D+00 0.302D+00 0.957D+00
 Gap=     0.346 Goal=   None    Shift=    0.000
 Gap=     0.276 Goal=   None    Shift=    0.000
 RMSDP=4.45D-06 MaxDP=1.58D-04 DE=-4.23D-06 OVMax= 1.09D-03

 Initial convergence to 1.0D-05 achieved.  Increase integral accuracy.
 Cycle  10  Pass 1  IDiag  1:
 E= -305.890484374665     Delta-E=       -0.000017691770 Rises=F Damp=F
 DIIS: error= 1.91D-05 at cycle   1 NSaved=   1.
 NSaved= 1 IEnMin= 1 EnMin= -305.890484374665     IErMin= 1 ErrMin= 1.91D-05
 ErrMax= 1.91D-05  0.00D+00 EMaxC= 1.00D-01 BMatC= 9.96D-07 BMatP= 9.96D-07
 IDIUse=1 WtCom= 1.00D+00 WtEn= 0.00D+00
 Coeff-Com:  0.100D+01
 Coeff:      0.100D+01
 Gap=     0.346 Goal=   None    Shift=    0.000
 Gap=     0.276 Goal=   None    Shift=    0.000
 RMSDP=4.45D-06 MaxDP=1.58D-04 DE=-1.77D-05 OVMax= 3.65D-04

 Cycle  11  Pass 1  IDiag  1:
 RMSU=  5.17D-06    CP:  1.00D+00
 E= -305.890484686144     Delta-E=       -0.000000311478 Rises=F Damp=F
 DIIS: error= 1.23D-05 at cycle   2 NSaved=   2.
 NSaved= 2 IEnMin= 2 EnMin= -305.890484686144     IErMin= 2 ErrMin= 1.23D-05
 ErrMax= 1.23D-05  0.00D+00 EMaxC= 1.00D-01 BMatC= 1.25D-07 BMatP= 9.96D-07
 IDIUse=1 WtCom= 1.00D+00 WtEn= 0.00D+00
 Coeff-Com:  0.675D-01 0.932D+00
 Coeff:      0.675D-01 0.932D+00
 Gap=     0.346 Goal=   None    Shift=    0.000
 Gap=     0.276 Goal=   None    Shift=    0.000
 RMSDP=1.23D-06 MaxDP=3.80D-05 DE=-3.11D-07 OVMax= 2.65D-04

 Cycle  12  Pass 1  IDiag  1:
 RMSU=  1.03D-06    CP:  1.00D+00  1.13D+00
 E= -305.890484768865     Delta-E=       -0.000000082721 Rises=F Damp=F
 DIIS: error= 7.49D-06 at cycle   3 NSaved=   3.
 NSaved= 3 IEnMin= 3 EnMin= -305.890484768865     IErMin= 3 ErrMin= 7.49D-06
 ErrMax= 7.49D-06  0.00D+00 EMaxC= 1.00D-01 BMatC= 1.04D-07 BMatP= 1.25D-07
 IDIUse=1 WtCom= 1.00D+00 WtEn= 0.00D+00
 Coeff-Com: -0.641D-01 0.481D+00 0.583D+00
 Coeff:     -0.641D-01 0.481D+00 0.583D+00
 Gap=     0.346 Goal=   None    Shift=    0.000
 Gap=     0.276 Goal=   None    Shift=    0.000
 RMSDP=6.21D-07 MaxDP=3.07D-05 DE=-8.27D-08 OVMax= 1.27D-04

 Cycle  13  Pass 1  IDiag  1:
 RMSU=  5.36D-07    CP:  1.00D+00  1.18D+00  1.16D+00
 E= -305.890484814936     Delta-E=       -0.000000046072 Rises=F Damp=F
 DIIS: error= 6.34D-06 at cycle   4 NSaved=   4.
 NSaved= 4 IEnMin= 4 EnMin= -305.890484814936     IErMin= 4 ErrMin= 6.34D-06
 ErrMax= 6.34D-06  0.00D+00 EMaxC= 1.00D-01 BMatC= 1.66D-08 BMatP= 1.04D-07
 IDIUse=1 WtCom= 1.00D+00 WtEn= 0.00D+00
 Coeff-Com: -0.108D-01-0.238D+00-0.113D+00 0.136D+01
 Coeff:     -0.108D-01-0.238D+00-0.113D+00 0.136D+01
 Gap=     0.346 Goal=   None    Shift=    0.000
 Gap=     0.276 Goal=   None    Shift=    0.000
 RMSDP=8.55D-07 MaxDP=3.17D-05 DE=-4.61D-08 OVMax= 2.24D-04

 Cycle  14  Pass 1  IDiag  1:
 RMSU=  2.65D-07    CP:  1.00D+00  1.24D+00  1.75D+00  1.84D+00
 E= -305.890484849397     Delta-E=       -0.000000034461 Rises=F Damp=F
 DIIS: error= 2.89D-06 at cycle   5 NSaved=   5.
 NSaved= 5 IEnMin= 5 EnMin= -305.890484849397     IErMin= 5 ErrMin= 2.89D-06
 ErrMax= 2.89D-06  0.00D+00 EMaxC= 1.00D-01 BMatC= 1.28D-08 BMatP= 1.66D-08
 IDIUse=1 WtCom= 1.00D+00 WtEn= 0.00D+00
 Coeff-Com:  0.292D-01-0.438D+00-0.433D+00 0.995D+00 0.847D+00
 Coeff:      0.292D-01-0.438D+00-0.433D+00 0.995D+00 0.847D+00
 Gap=     0.346 Goal=   None    Shift=    0.000
 Gap=     0.276 Goal=   None    Shift=    0.000
 RMSDP=7.27D-07 MaxDP=3.23D-05 DE=-3.45D-08 OVMax= 1.90D-04

 Cycle  15  Pass 1  IDiag  1:
 RMSU=  1.52D-07    CP:  1.00D+00  1.28D+00  2.24D+00  2.67D+00  1.37D+00
 E= -305.890484863540     Delta-E=       -0.000000014143 Rises=F Damp=F
 DIIS: error= 8.71D-07 at cycle   6 NSaved=   6.
 NSaved= 6 IEnMin= 6 EnMin= -305.890484863540     IErMin= 6 ErrMin= 8.71D-07
 ErrMax= 8.71D-07  0.00D+00 EMaxC= 1.00D-01 BMatC= 9.79D-10 BMatP= 1.28D-08
 IDIUse=1 WtCom= 1.00D+00 WtEn= 0.00D+00
 Coeff-Com:  0.118D-01-0.128D+00-0.144D+00 0.188D+00 0.305D+00 0.766D+00
 Coeff:      0.118D-01-0.128D+00-0.144D+00 0.188D+00 0.305D+00 0.766D+00
 Gap=     0.346 Goal=   None    Shift=    0.000
 Gap=     0.276 Goal=   None    Shift=    0.000
 RMSDP=1.50D-07 MaxDP=6.20D-06 DE=-1.41D-08 OVMax= 3.83D-05

 Cycle  16  Pass 1  IDiag  1:
 RMSU=  5.10D-08    CP:  1.00D+00  1.28D+00  2.33D+00  2.83D+00  1.57D+00
                    CP:  1.20D+00
 E= -305.890484864284     Delta-E=       -0.000000000744 Rises=F Damp=F
 DIIS: error= 4.75D-07 at cycle   7 NSaved=   7.
 NSaved= 7 IEnMin= 7 EnMin= -305.890484864284     IErMin= 7 ErrMin= 4.75D-07
 ErrMax= 4.75D-07  0.00D+00 EMaxC= 1.00D-01 BMatC= 2.69D-10 BMatP= 9.79D-10
 IDIUse=1 WtCom= 1.00D+00 WtEn= 0.00D+00
 Coeff-Com: -0.262D-02 0.682D-01 0.592D-01-0.206D+00-0.102D+00 0.366D+00
 Coeff-Com:  0.817D+00
 Coeff:     -0.262D-02 0.682D-01 0.592D-01-0.206D+00-0.102D+00 0.366D+00
 Coeff:      0.817D+00
 Gap=     0.346 Goal=   None    Shift=    0.000
 Gap=     0.276 Goal=   None    Shift=    0.000
 RMSDP=7.17D-08 MaxDP=3.09D-06 DE=-7.44D-10 OVMax= 1.84D-05

 Cycle  17  Pass 1  IDiag  1:
 RMSU=  2.12D-08    CP:  1.00D+00  1.28D+00  2.37D+00  2.90D+00  1.71D+00
                    CP:  1.40D+00  1.03D+00
 E= -305.890484864438     Delta-E=       -0.000000000155 Rises=F Damp=F
 DIIS: error= 9.46D-08 at cycle   8 NSaved=   8.
 NSaved= 8 IEnMin= 8 EnMin= -305.890484864438     IErMin= 8 ErrMin= 9.46D-08
 ErrMax= 9.46D-08  0.00D+00 EMaxC= 1.00D-01 BMatC= 1.48D-11 BMatP= 2.69D-10
 IDIUse=1 WtCom= 1.00D+00 WtEn= 0.00D+00
 Coeff-Com: -0.158D-02 0.223D-01 0.224D-01-0.447D-01-0.448D-01-0.483D-01
 Coeff-Com:  0.113D+00 0.981D+00
 Coeff:     -0.158D-02 0.223D-01 0.224D-01-0.447D-01-0.448D-01-0.483D-01
 Coeff:      0.113D+00 0.981D+00
 Gap=     0.346 Goal=   None    Shift=    0.000
 Gap=     0.276 Goal=   None    Shift=    0.000
 RMSDP=1.65D-08 MaxDP=7.21D-07 DE=-1.55D-10 OVMax= 3.40D-06

 Cycle  18  Pass 1  IDiag  1:
 RMSU=  5.90D-09    CP:  1.00D+00  1.28D+00  2.37D+00  2.90D+00  1.73D+00
                    CP:  1.45D+00  1.18D+00  1.32D+00
 E= -305.890484864442     Delta-E=       -0.000000000003 Rises=F Damp=F
 DIIS: error= 3.80D-08 at cycle   9 NSaved=   9.
 NSaved= 9 IEnMin= 9 EnMin= -305.890484864442     IErMin= 9 ErrMin= 3.80D-08
 ErrMax= 3.80D-08  0.00D+00 EMaxC= 1.00D-01 BMatC= 2.22D-12 BMatP= 1.48D-11
 IDIUse=1 WtCom= 1.00D+00 WtEn= 0.00D+00
 Coeff-Com:  0.804D-04-0.547D-02-0.410D-02 0.209D-01 0.593D-02-0.667D-01
 Coeff-Com: -0.853D-01 0.208D+00 0.927D+00
 Coeff:      0.804D-04-0.547D-02-0.410D-02 0.209D-01 0.593D-02-0.667D-01
 Coeff:     -0.853D-01 0.208D+00 0.927D+00
 Gap=     0.346 Goal=   None    Shift=    0.000
 Gap=     0.276 Goal=   None    Shift=    0.000
 RMSDP=5.27D-09 MaxDP=2.33D-07 DE=-3.41D-12 OVMax= 9.18D-07

 SCF Done:  E(UM062X) =  -305.890484864     A.U. after   18 cycles
            NFock= 18  Conv=0.53D-08     -V/T= 2.0050
 <Sx>= 0.0000 <Sy>= 0.0000 <Sz>= 0.5000 <S**2>= 0.7599 S= 0.5049
 <L.S>= 0.000000000000E+00
 KE= 3.043584767909D+02 PE=-1.095138237948D+03 EE= 2.969986095904D+02
 Annihilation of the first spin contaminant:
 S**2 before annihilation     0.7599,   after     0.7500
 Leave Link  502 at Sat Jun 22 12:30:59 2019, MaxMem=   671088640 cpu:             757.6 elap:              38.0
 (Enter /shared/centos7/gaussian/g16/l801.exe)
 DoSCS=F DFT=T ScalE2(SS,OS)=  1.000000  1.000000
 Range of M.O.s used for correlation:     1   248
 NBasis=   248 NAE=    22 NBE=    21 NFC=     0 NFV=     0
 NROrb=    248 NOA=    22 NOB=    21 NVA=   226 NVB=   227
 Leave Link  801 at Sat Jun 22 12:30:59 2019, MaxMem=   671088640 cpu:               0.6 elap:               0.1
 (Enter /shared/centos7/gaussian/g16/l1101.exe)
 Using compressed storage, NAtomX=    12.
 Will process     13 centers per pass.
 Leave Link 1101 at Sat Jun 22 12:31:00 2019, MaxMem=   671088640 cpu:               6.1 elap:               0.3
 (Enter /shared/centos7/gaussian/g16/l1102.exe)
 Symmetrizing basis deriv contribution to polar:
 IMax=3 JMax=2 DiffMx= 0.00D+00
 Leave Link 1102 at Sat Jun 22 12:31:00 2019, MaxMem=   671088640 cpu:               1.6 elap:               0.1
 (Enter /shared/centos7/gaussian/g16/l1110.exe)
 Forming Gx(P) for the SCF density, NAtomX=    12.
 Integral derivatives from FoFJK, PRISM(SPDF).
 Do as many integral derivatives as possible in FoFJK.
 G2DrvN: MDV=     671087640.
 G2DrvN: will do    13 centers at a time, making    1 passes.
 Calling FoFCou, ICntrl=  3107 FMM=F I1Cent=   0 AccDes= 0.00D+00.
 FoFJK:  IHMeth= 1 ICntrl=    3107 DoSepK=F KAlg= 0 I1Cent=           0 FoldK=F
 IRaf=         0 NMat=       1 IRICut=       1 DoRegI=T DoRafI=F ISym2E= 0 IDoP0=0 IntGTp=1.
 FoFCou: FMM=F IPFlag=           0 FMFlag=      100000 FMFlg1=           0
         NFxFlg=           0 DoJE=F BraDBF=F KetDBF=F FulRan=T
         wScrn=  0.000000 ICntrl=      3107 IOpCl=  1 I1Cent=           0 NGrid=           0
         NMat0=    1 NMatS0=      1 NMatT0=    0 NMatD0=    1 NMtDS0=    0 NMtDT0=    0
 Symmetry not used in FoFCou.
 End of G2Drv F.D. properties file   721 does not exist.
 End of G2Drv F.D. properties file   722 does not exist.
 End of G2Drv F.D. properties file   788 does not exist.
 Leave Link 1110 at Sat Jun 22 12:32:07 2019, MaxMem=   671088640 cpu:            1335.6 elap:              66.9
 (Enter /shared/centos7/gaussian/g16/l1002.exe)
 Minotr:  UHF open shell wavefunction.
          IDoAtm=111111111111
          Direct CPHF calculation.
          Differentiating once with respect to nuclear coordinates.
          Requested convergence is 1.0D-08 RMS, and 1.0D-07 maximum.
          Secondary convergence is 1.0D-12 RMS, and 1.0D-12 maximum.
          NewPWx=T KeepS1=F KeepF1=F KeepIn=T MapXYZ=F SortEE=F KeepMc=T.
         3584 words used for storage of precomputed grid.
 Two-electron integrals replicated using symmetry.
          MDV=     671088640 using IRadAn=       1.
          Solving linear equations simultaneously, MaxMat=     380.
 FoF2E skips out because all densities are zero.
 CalDSu exits because no D1Ps are significant.
 FoFJK:  IHMeth= 1 ICntrl=       0 DoSepK=F KAlg= 0 I1Cent=           0 FoldK=F
 IRaf= 960000000 NMat=      36 IRICut=      90 DoRegI=T DoRafI=T ISym2E= 2 IDoP0=3 IntGTp=3.
 FoFCou: FMM=F IPFlag=           0 FMFlag=      100000 FMFlg1=           0
         NFxFlg=           0 DoJE=F BraDBF=F KetDBF=F FulRan=T
         wScrn=  0.000000 ICntrl=         0 IOpCl=  1 I1Cent=           0 NGrid=           0
         NMat0=   36 NMatS0=     36 NMatT0=    0 NMatD0=   36 NMtDS0=    0 NMtDT0=    0
 Integrals replicated using symmetry in FoFCou.
 Raff kept on since  94.58% of shell-pairs survive, threshold=   0.20 IRatSp=95.
          There are    39 degrees of freedom in the 1st order CPHF.  IDoFFX=6 NUNeed=     0.
     33 vectors produced by pass  0 Test12= 2.50D-14 2.56D-09 XBig12= 1.42D-01 1.40D-01.
 AX will form    33 AO Fock derivatives at one time.
     33 vectors produced by pass  1 Test12= 2.50D-14 2.56D-09 XBig12= 1.34D-02 3.09D-02.
     33 vectors produced by pass  2 Test12= 2.50D-14 2.56D-09 XBig12= 8.81D-04 5.70D-03.
     33 vectors produced by pass  3 Test12= 2.50D-14 2.56D-09 XBig12= 2.19D-05 6.69D-04.
     33 vectors produced by pass  4 Test12= 2.50D-14 2.56D-09 XBig12= 3.14D-07 8.12D-05.
     33 vectors produced by pass  5 Test12= 2.50D-14 2.56D-09 XBig12= 4.41D-09 8.42D-06.
     33 vectors produced by pass  6 Test12= 2.50D-14 2.56D-09 XBig12= 4.76D-11 9.15D-07.
     17 vectors produced by pass  7 Test12= 2.50D-14 2.56D-09 XBig12= 4.46D-13 8.46D-08.
      3 vectors produced by pass  8 Test12= 2.50D-14 2.56D-09 XBig12= 3.37D-15 4.92D-09.
 InvSVY:  IOpt=1 It=  1 EMax= 1.78D-15
 Solved reduced A of dimension   251 with    33 vectors.
 End of Minotr F.D. properties file   721 does not exist.
 End of Minotr F.D. properties file   722 does not exist.
 End of Minotr F.D. properties file   788 does not exist.
 Leave Link 1002 at Sat Jun 22 12:34:00 2019, MaxMem=   671088640 cpu:            2261.8 elap:             113.2
 (Enter /shared/centos7/gaussian/g16/l601.exe)
 Copying SCF densities to generalized density rwf, IOpCl= 1 IROHF=0.

 **********************************************************************

            Population analysis using the SCF density.

 **********************************************************************

 Orbital symmetries:
 Alpha Orbitals:
       Occupied  (A) (A) (A) (A) (A) (A) (A) (A) (A) (A) (A) (A)
                 (A) (A) (A) (A) (A) (A) (A) (A) (A) (A)
       Virtual   (A) (A) (A) (A) (A) (A) (A) (A) (A) (A) (A) (A)
                 (A) (A) (A) (A) (A) (A) (A) (A) (A) (A) (A) (A)
                 (A) (A) (A) (A) (A) (A) (A) (A) (A) (A) (A) (A)
                 (A) (A) (A) (A) (A) (A) (A) (A) (A) (A) (A) (A)
                 (A) (A) (A) (A) (A) (A) (A) (A) (A) (A) (A) (A)
                 (A) (A) (A) (A) (A) (A) (A) (A) (A) (A) (A) (A)
                 (A) (A) (A) (A) (A) (A) (A) (A) (A) (A) (A) (A)
                 (A) (A) (A) (A) (A) (A) (A) (A) (A) (A) (A) (A)
                 (A) (A) (A) (A) (A) (A) (A) (A) (A) (A) (A) (A)
                 (A) (A) (A) (A) (A) (A) (A) (A) (A) (A) (A) (A)
                 (A) (A) (A) (A) (A) (A) (A) (A) (A) (A) (A) (A)
                 (A) (A) (A) (A) (A) (A) (A) (A) (A) (A) (A) (A)
                 (A) (A) (A) (A) (A) (A) (A) (A) (A) (A) (A) (A)
                 (A) (A) (A) (A) (A) (A) (A) (A) (A) (A) (A) (A)
                 (A) (A) (A) (A) (A) (A) (A) (A) (A) (A) (A) (A)
                 (A) (A) (A) (A) (A) (A) (A) (A) (A) (A) (A) (A)
                 (A) (A) (A) (A) (A) (A) (A) (A) (A) (A) (A) (A)
                 (A) (A) (A) (A) (A) (A) (A) (A) (A) (A) (A) (A)
                 (A) (A) (A) (A) (A) (A) (A) (A) (A) (A)
 Beta  Orbitals:
       Occupied  (A) (A) (A) (A) (A) (A) (A) (A) (A) (A) (A) (A)
                 (A) (A) (A) (A) (A) (A) (A) (A) (A)
       Virtual   (A) (A) (A) (A) (A) (A) (A) (A) (A) (A) (A) (A)
                 (A) (A) (A) (A) (A) (A) (A) (A) (A) (A) (A) (A)
                 (A) (A) (A) (A) (A) (A) (A) (A) (A) (A) (A) (A)
                 (A) (A) (A) (A) (A) (A) (A) (A) (A) (A) (A) (A)
                 (A) (A) (A) (A) (A) (A) (A) (A) (A) (A) (A) (A)
                 (A) (A) (A) (A) (A) (A) (A) (A) (A) (A) (A) (A)
                 (A) (A) (A) (A) (A) (A) (A) (A) (A) (A) (A) (A)
                 (A) (A) (A) (A) (A) (A) (A) (A) (A) (A) (A) (A)
                 (A) (A) (A) (A) (A) (A) (A) (A) (A) (A) (A) (A)
                 (A) (A) (A) (A) (A) (A) (A) (A) (A) (A) (A) (A)
                 (A) (A) (A) (A) (A) (A) (A) (A) (A) (A) (A) (A)
                 (A) (A) (A) (A) (A) (A) (A) (A) (A) (A) (A) (A)
                 (A) (A) (A) (A) (A) (A) (A) (A) (A) (A) (A) (A)
                 (A) (A) (A) (A) (A) (A) (A) (A) (A) (A) (A) (A)
                 (A) (A) (A) (A) (A) (A) (A) (A) (A) (A) (A) (A)
                 (A) (A) (A) (A) (A) (A) (A) (A) (A) (A) (A) (A)
                 (A) (A) (A) (A) (A) (A) (A) (A) (A) (A) (A) (A)
                 (A) (A) (A) (A) (A) (A) (A) (A) (A) (A) (A) (A)
                 (A) (A) (A) (A) (A) (A) (A) (A) (A) (A) (A)
 The electronic state is 2-A.
 Alpha  occ. eigenvalues --  -19.69323 -19.68897 -19.62452 -10.59316 -10.55940
 Alpha  occ. eigenvalues --   -1.27414  -1.15187  -0.99546  -0.86248  -0.72427
 Alpha  occ. eigenvalues --   -0.62803  -0.60294  -0.57706  -0.54448  -0.52391
 Alpha  occ. eigenvalues --   -0.52100  -0.46178  -0.41885  -0.40946  -0.37817
 Alpha  occ. eigenvalues --   -0.36597  -0.29527
 Alpha virt. eigenvalues --    0.05121   0.06521   0.10329   0.11112   0.13022
 Alpha virt. eigenvalues --    0.15075   0.15977   0.19343   0.22356   0.23583
 Alpha virt. eigenvalues --    0.27773   0.32255   0.35782   0.38257   0.40494
 Alpha virt. eigenvalues --    0.42884   0.44268   0.45111   0.46803   0.47950
 Alpha virt. eigenvalues --    0.48543   0.49209   0.50913   0.54945   0.56527
 Alpha virt. eigenvalues --    0.57677   0.59894   0.60468   0.62768   0.67443
 Alpha virt. eigenvalues --    0.69325   0.70500   0.72360   0.74406   0.75955
 Alpha virt. eigenvalues --    0.77494   0.81728   0.84822   0.85855   0.92163
 Alpha virt. eigenvalues --    0.93196   0.94692   0.98276   1.00485   1.02901
 Alpha virt. eigenvalues --    1.07200   1.08621   1.10421   1.12204   1.14645
 Alpha virt. eigenvalues --    1.17117   1.19252   1.21240   1.23579   1.24257
 Alpha virt. eigenvalues --    1.29330   1.34018   1.35029   1.35274   1.37272
 Alpha virt. eigenvalues --    1.38842   1.42055   1.43218   1.50559   1.51106
 Alpha virt. eigenvalues --    1.56959   1.57419   1.58906   1.62222   1.71650
 Alpha virt. eigenvalues --    1.80049   1.89511   1.91781   1.92145   1.98330
 Alpha virt. eigenvalues --    1.99468   2.02693   2.09831   2.10628   2.14378
 Alpha virt. eigenvalues --    2.17821   2.21325   2.28926   2.32317   2.35425
 Alpha virt. eigenvalues --    2.37261   2.42098   2.45077   2.50576   2.54269
 Alpha virt. eigenvalues --    2.57978   2.61667   2.67949   2.68295   2.74015
 Alpha virt. eigenvalues --    2.79617   2.83505   2.85716   2.87553   2.92850
 Alpha virt. eigenvalues --    2.93762   2.95674   2.97382   3.00640   3.01283
 Alpha virt. eigenvalues --    3.06568   3.07997   3.12133   3.16100   3.18431
 Alpha virt. eigenvalues --    3.18954   3.22887   3.24864   3.27341   3.28406
 Alpha virt. eigenvalues --    3.30209   3.32096   3.36976   3.40766   3.42476
 Alpha virt. eigenvalues --    3.44235   3.46123   3.47472   3.48865   3.51780
 Alpha virt. eigenvalues --    3.55430   3.58394   3.61374   3.64803   3.67624
 Alpha virt. eigenvalues --    3.70491   3.72693   3.73949   3.77111   3.79059
 Alpha virt. eigenvalues --    3.80919   3.83344   3.85113   3.86048   3.87825
 Alpha virt. eigenvalues --    3.88198   3.91053   3.94742   3.95976   3.98979
 Alpha virt. eigenvalues --    4.00494   4.03281   4.04696   4.08306   4.09917
 Alpha virt. eigenvalues --    4.10672   4.16390   4.19293   4.21782   4.22518
 Alpha virt. eigenvalues --    4.22810   4.28244   4.35559   4.36175   4.40655
 Alpha virt. eigenvalues --    4.43124   4.45525   4.48069   4.64080   4.68271
 Alpha virt. eigenvalues --    4.70566   4.75722   4.76909   4.80584   4.84866
 Alpha virt. eigenvalues --    4.85819   4.88591   4.92269   4.93798   5.00123
 Alpha virt. eigenvalues --    5.01378   5.02303   5.08225   5.11484   5.14487
 Alpha virt. eigenvalues --    5.17557   5.23097   5.25320   5.32555   5.36255
 Alpha virt. eigenvalues --    5.41504   5.45102   5.54906   5.57234   5.73767
 Alpha virt. eigenvalues --    5.75726   5.77058   5.83859   5.94991   5.97065
 Alpha virt. eigenvalues --    6.09460   6.18776   6.19286   6.32683   6.35998
 Alpha virt. eigenvalues --    6.37708   6.46169   6.48112   6.54895   6.57423
 Alpha virt. eigenvalues --    6.62215   6.64410   6.69215   6.69797   6.71558
 Alpha virt. eigenvalues --    6.74456   6.83957   6.86768   6.88528   6.96278
 Alpha virt. eigenvalues --    7.12918   7.13572   7.18969   7.38366   7.43985
 Alpha virt. eigenvalues --    7.58788   9.90526  11.21878  11.79422  12.07766
 Alpha virt. eigenvalues --   12.82619
  Beta  occ. eigenvalues --  -19.69185 -19.67947 -19.62455 -10.59338 -10.55399
  Beta  occ. eigenvalues --   -1.25790  -1.15159  -0.97174  -0.84754  -0.71176
  Beta  occ. eigenvalues --   -0.61218  -0.58776  -0.56016  -0.53660  -0.51416
  Beta  occ. eigenvalues --   -0.49781  -0.45527  -0.41091  -0.38262  -0.36179
  Beta  occ. eigenvalues --   -0.35197
  Beta virt. eigenvalues --   -0.07619   0.05253   0.06550   0.10397   0.10984
  Beta virt. eigenvalues --    0.13427   0.15338   0.16229   0.19430   0.23026
  Beta virt. eigenvalues --    0.23935   0.28043   0.32421   0.35948   0.38337
  Beta virt. eigenvalues --    0.40865   0.43067   0.44724   0.46113   0.47405
  Beta virt. eigenvalues --    0.48722   0.49226   0.50099   0.51601   0.55229
  Beta virt. eigenvalues --    0.56786   0.58630   0.59964   0.60645   0.63373
  Beta virt. eigenvalues --    0.67758   0.69423   0.70785   0.72576   0.74819
  Beta virt. eigenvalues --    0.76143   0.77557   0.81821   0.84877   0.86138
  Beta virt. eigenvalues --    0.92541   0.93477   0.94867   0.98437   1.00689
  Beta virt. eigenvalues --    1.03076   1.07467   1.08827   1.10413   1.12338
  Beta virt. eigenvalues --    1.15207   1.17677   1.20048   1.21598   1.23795
  Beta virt. eigenvalues --    1.24599   1.29630   1.34091   1.35818   1.35921
  Beta virt. eigenvalues --    1.37471   1.38922   1.42468   1.43461   1.50694
  Beta virt. eigenvalues --    1.51488   1.57652   1.58502   1.59464   1.62746
  Beta virt. eigenvalues --    1.72960   1.80868   1.89696   1.92191   1.92733
  Beta virt. eigenvalues --    1.98524   1.99652   2.03150   2.10328   2.11135
  Beta virt. eigenvalues --    2.14763   2.18265   2.21645   2.29675   2.32939
  Beta virt. eigenvalues --    2.36195   2.37995   2.42921   2.45401   2.51306
  Beta virt. eigenvalues --    2.55743   2.57804   2.62942   2.69081   2.70045
  Beta virt. eigenvalues --    2.74829   2.80408   2.84504   2.86745   2.89894
  Beta virt. eigenvalues --    2.93888   2.94828   2.96736   2.97890   3.02562
  Beta virt. eigenvalues --    3.02722   3.08116   3.09312   3.12618   3.17722
  Beta virt. eigenvalues --    3.19055   3.20356   3.23836   3.25921   3.28209
  Beta virt. eigenvalues --    3.28871   3.30654   3.32617   3.37632   3.41401
  Beta virt. eigenvalues --    3.43596   3.44985   3.46571   3.47897   3.49365
  Beta virt. eigenvalues --    3.51957   3.55700   3.58579   3.62159   3.65544
  Beta virt. eigenvalues --    3.67976   3.70950   3.72914   3.74126   3.77898
  Beta virt. eigenvalues --    3.79482   3.81420   3.83817   3.85685   3.86475
  Beta virt. eigenvalues --    3.88182   3.88823   3.91283   3.95001   3.96003
  Beta virt. eigenvalues --    3.99301   4.01113   4.03454   4.05225   4.08534
  Beta virt. eigenvalues --    4.10359   4.11296   4.16666   4.19760   4.22225
  Beta virt. eigenvalues --    4.23087   4.23596   4.28779   4.35750   4.37042
  Beta virt. eigenvalues --    4.41421   4.44077   4.46956   4.49174   4.64543
  Beta virt. eigenvalues --    4.68648   4.71179   4.76902   4.77774   4.81263
  Beta virt. eigenvalues --    4.85736   4.87034   4.89476   4.92925   4.94805
  Beta virt. eigenvalues --    5.01274   5.02574   5.03168   5.09344   5.12264
  Beta virt. eigenvalues --    5.16317   5.18272   5.23613   5.27256   5.33972
  Beta virt. eigenvalues --    5.37037   5.42863   5.48336   5.55470   5.57853
  Beta virt. eigenvalues --    5.74078   5.77377   5.80233   5.84977   5.95290
  Beta virt. eigenvalues --    5.97396   6.10372   6.18912   6.20805   6.33440
  Beta virt. eigenvalues --    6.36575   6.37848   6.46662   6.48470   6.56054
  Beta virt. eigenvalues --    6.59383   6.63437   6.64478   6.69408   6.70933
  Beta virt. eigenvalues --    6.71959   6.75004   6.84179   6.87625   6.89197
  Beta virt. eigenvalues --    6.96349   7.13034   7.13677   7.19814   7.38389
  Beta virt. eigenvalues --    7.44217   7.59095   9.91299  11.22043  11.79532
  Beta virt. eigenvalues --   12.08593  12.83371
          Condensed to atoms (all electrons):
               1          2          3          4          5          6
     1  O    7.856392   0.000070  -0.000101   0.322081  -0.053386  -0.048692
     2  O    0.000070   7.895142   0.055704  -0.019643   0.012436  -0.000474
     3  O   -0.000101   0.055704   8.084750   0.009396  -0.094827  -0.000089
     4  C    0.322081  -0.019643   0.009396   4.759951   0.293603   0.394725
     5  C   -0.053386   0.012436  -0.094827   0.293603   5.402132  -0.060973
     6  H   -0.048692  -0.000474  -0.000089   0.394725  -0.060973   0.695449
     7  H   -0.028536   0.023144  -0.003892   0.393177  -0.044818  -0.065556
     8  H    0.007138  -0.035182   0.198249  -0.010646   0.216627   0.006728
     9  H   -0.002455   0.001593   0.001047  -0.029580   0.375697  -0.006582
    10  H    0.005838   0.002462  -0.004431  -0.045137   0.359372   0.004009
    11  H    0.317753  -0.000025  -0.000022  -0.037591  -0.007299  -0.011304
    12  H   -0.000024   0.304537  -0.030317   0.000571  -0.004153  -0.000162
               7          8          9         10         11         12
     1  O   -0.028536   0.007138  -0.002455   0.005838   0.317753  -0.000024
     2  O    0.023144  -0.035182   0.001593   0.002462  -0.000025   0.304537
     3  O   -0.003892   0.198249   0.001047  -0.004431  -0.000022  -0.030317
     4  C    0.393177  -0.010646  -0.029580  -0.045137  -0.037591   0.000571
     5  C   -0.044818   0.216627   0.375697   0.359372  -0.007299  -0.004153
     6  H   -0.065556   0.006728  -0.006582   0.004009  -0.011304  -0.000162
     7  H    0.590411  -0.011541   0.007637  -0.003556   0.009437  -0.001135
     8  H   -0.011541   0.399630  -0.014149  -0.005683  -0.001167   0.001562
     9  H    0.007637  -0.014149   0.554653  -0.023994   0.005301   0.000108
    10  H   -0.003556  -0.005683  -0.023994   0.567693  -0.000118   0.002301
    11  H    0.009437  -0.001167   0.005301  -0.000118   0.484921   0.000008
    12  H   -0.001135   0.001562   0.000108   0.002301   0.000008   0.458730
          Atomic-Atomic Spin Densities.
               1          2          3          4          5          6
     1  O   -0.002937   0.000005  -0.000148   0.004026   0.001387  -0.001036
     2  O    0.000005   0.061467  -0.042247  -0.003311   0.019465   0.000657
     3  O   -0.000148  -0.042247   0.556059   0.010298  -0.115583  -0.001040
     4  C    0.004026  -0.003311   0.010298  -0.023629  -0.045290   0.005752
     5  C    0.001387   0.019465  -0.115583  -0.045290   0.764964  -0.017016
     6  H   -0.001036   0.000657  -0.001040   0.005752  -0.017016   0.066086
     7  H    0.000054  -0.003482   0.002924   0.010747  -0.010546  -0.008350
     8  H    0.000050   0.008503  -0.033017  -0.006691   0.062839   0.000545
     9  H    0.000011  -0.000416   0.002921   0.006213  -0.006071  -0.002026
    10  H   -0.000189  -0.001362   0.002756   0.005472  -0.006206  -0.001025
    11  H   -0.000384  -0.000003   0.000037   0.000474  -0.000256  -0.000863
    12  H    0.000001   0.001080  -0.001078   0.000041  -0.000350   0.000010
               7          8          9         10         11         12
     1  O    0.000054   0.000050   0.000011  -0.000189  -0.000384   0.000001
     2  O   -0.003482   0.008503  -0.000416  -0.001362  -0.000003   0.001080
     3  O    0.002924  -0.033017   0.002921   0.002756   0.000037  -0.001078
     4  C    0.010747  -0.006691   0.006213   0.005472   0.000474   0.000041
     5  C   -0.010546   0.062839  -0.006071  -0.006206  -0.000256  -0.000350
     6  H   -0.008350   0.000545  -0.002026  -0.001025  -0.000863   0.000010
     7  H    0.021171  -0.000008   0.000207   0.000365   0.000245  -0.000036
     8  H   -0.000008  -0.060555   0.000442   0.001145  -0.000102   0.000141
     9  H    0.000207   0.000442  -0.032046   0.002947   0.000074  -0.000008
    10  H    0.000365   0.001145   0.002947  -0.037235   0.000019  -0.000076
    11  H    0.000245  -0.000102   0.000074   0.000019   0.001052  -0.000000
    12  H   -0.000036   0.000141  -0.000008  -0.000076  -0.000000  -0.001676
 Mulliken charges and spin densities:
               1          2
     1  O   -0.376078   0.000840
     2  O   -0.239763   0.040357
     3  O   -0.215468   0.381884
     4  C   -0.030907  -0.035898
     5  C   -0.394412   0.647339
     6  H    0.092921   0.041694
     7  H    0.135229   0.013292
     8  H    0.248434  -0.026707
     9  H    0.130724  -0.027751
    10  H    0.141243  -0.033390
    11  H    0.240105   0.000292
    12  H    0.267973  -0.001951
 Sum of Mulliken charges =  -0.00000   1.00000
 Mulliken charges and spin densities with hydrogens summed into heavy atoms:
               1          2
     1  O   -0.135973   0.001132
     2  O    0.028210   0.038407
     3  O    0.032966   0.355177
     4  C    0.197242   0.019087
     5  C   -0.122445   0.586197
 APT charges:
               1
     1  O   -0.651055
     2  O   -0.537963
     3  O   -0.161340
     4  C   -0.572406
     5  C   -0.726322
     6  H    0.371961
     7  H    0.253067
     8  H    0.166480
     9  H    0.374810
    10  H    0.321039
    11  H    0.598924
    12  H    0.562805
 Sum of APT charges =  -0.00000
 APT charges with hydrogens summed into heavy atoms:
               1
     1  O   -0.052131
     2  O    0.024842
     3  O    0.005140
     4  C    0.052622
     5  C   -0.030473
 Electronic spatial extent (au):  <R**2>=            584.1804
 Charge=             -0.0000 electrons
 Dipole moment (field-independent basis, Debye):
    X=             -0.7713    Y=              2.7311    Z=              2.1949  Tot=              3.5876
 Quadrupole moment (field-independent basis, Debye-Ang):
   XX=            -27.9570   YY=            -32.7480   ZZ=            -30.0488
   XY=             -2.2522   XZ=              4.4962   YZ=             -1.0532
 Traceless Quadrupole moment (field-independent basis, Debye-Ang):
   XX=              2.2943   YY=             -2.4967   ZZ=              0.2024
   XY=             -2.2522   XZ=              4.4962   YZ=             -1.0532
 Octapole moment (field-independent basis, Debye-Ang**2):
  XXX=              3.8502  YYY=             -2.1839  ZZZ=             -0.0475  XYY=              2.0617
  XXY=             10.2871  XXZ=              6.9528  XZZ=              2.8106  YZZ=              0.0654
  YYZ=             -0.6748  XYZ=              3.9740
 Hexadecapole moment (field-independent basis, Debye-Ang**3):
 XXXX=           -409.3585 YYYY=           -122.0015 ZZZZ=            -92.6252 XXXY=            -14.6284
 XXXZ=             43.7619 YYYX=             -0.9486 YYYZ=             -2.7436 ZZZX=             11.1259
 ZZZY=             -1.5766 XXYY=           -109.3142 XXZZ=            -81.5991 YYZZ=            -35.3842
 XXYZ=             -3.2219 YYXZ=              1.7256 ZZXY=             -0.9905
 N-N= 1.878906667020D+02 E-N=-1.095138240529D+03  KE= 3.043584767909D+02
  Exact polarizability:   0.000   0.000   0.000   0.000   0.000   0.000
 Approx polarizability:  61.341  -7.720  48.703  -0.879  -1.809  50.099
                          Isotropic Fermi Contact Couplings
        Atom                 a.u.       MegaHertz       Gauss      10(-4) cm-1
     1  O(17)             -0.00075       0.45428       0.16210       0.15153
     2  O(17)              0.00117      -0.70752      -0.25246      -0.23600
     3  O(17)              0.10036     -60.83644     -21.70796     -20.29285
     4  C(13)             -0.01354     -15.22342      -5.43209      -5.07799
     5  C(13)              0.18571     208.77754      74.49702      69.64069
     6  H(1)               0.02059      92.02940      32.83838      30.69770
     7  H(1)               0.00841      37.58433      13.41102      12.53678
     8  H(1)              -0.03136    -140.16489     -50.01432     -46.75398
     9  H(1)              -0.00372     -16.62036      -5.93056      -5.54396
    10  H(1)              -0.00840     -37.55086     -13.39908     -12.52562
    11  H(1)               0.00001       0.02963       0.01057       0.00988
    12  H(1)              -0.00107      -4.76777      -1.70126      -1.59036
 --------------------------------------------------------
       Center         ----  Spin Dipole Couplings  ----
                      3XX-RR        3YY-RR        3ZZ-RR
 --------------------------------------------------------
     1   Atom       -0.003614     -0.003487      0.007100
     2   Atom        0.236984     -0.076694     -0.160290
     3   Atom        1.191157     -0.637132     -0.554025
     4   Atom        0.027150     -0.014098     -0.013052
     5   Atom        0.153803     -0.215791      0.061989
     6   Atom        0.000507     -0.003444      0.002937
     7   Atom       -0.005410      0.010413     -0.005003
     8   Atom        0.136631     -0.074721     -0.061910
     9   Atom       -0.010174      0.005034      0.005141
    10   Atom        0.005927     -0.026130      0.020204
    11   Atom        0.005906     -0.003636     -0.002270
    12   Atom        0.001522     -0.008687      0.007165
 --------------------------------------------------------
                        XY            XZ            YZ
 --------------------------------------------------------
     1   Atom        0.003384      0.006128      0.006141
     2   Atom       -0.186135     -0.096824      0.091286
     3   Atom       -0.834836     -0.938006      0.345237
     4   Atom        0.005965     -0.019089     -0.001751
     5   Atom       -0.266763     -0.455013      0.240167
     6   Atom        0.004300     -0.009054     -0.000636
     7   Atom        0.002126     -0.002616     -0.008838
     8   Atom       -0.105249     -0.081047      0.040249
     9   Atom       -0.037753      0.006453     -0.029947
    10   Atom        0.007279      0.022181      0.034828
    11   Atom        0.003757      0.003746      0.001736
    12   Atom       -0.001573      0.013922      0.004315
 --------------------------------------------------------


 ---------------------------------------------------------------------------------
              Anisotropic Spin Dipole Couplings in Principal Axis System
 ---------------------------------------------------------------------------------

       Atom             a.u.   MegaHertz   Gauss  10(-4) cm-1        Axes

              Baa    -0.0069     0.502     0.179     0.167  0.7352 -0.6774 -0.0246
     1 O(17)  Bbb    -0.0059     0.430     0.153     0.143  0.5543  0.6217 -0.5534
              Bcc     0.0129    -0.931    -0.332    -0.311  0.3902  0.3932  0.8326
 
              Baa    -0.2204    15.948     5.691     5.320 -0.0785 -0.6050  0.7924
     2 O(17)  Bbb    -0.1343     9.719     3.468     3.242  0.4832  0.6721  0.5610
              Bcc     0.3547   -25.667    -9.159    -8.562  0.8720 -0.4269 -0.2396
 
              Baa    -0.9756    70.595    25.190    23.548  0.5011  0.5994  0.6241
     3 O(17)  Bbb    -0.9433    68.254    24.355    22.767 -0.0166  0.7278 -0.6856
              Bcc     1.9189  -138.849   -49.545   -46.315  0.8652 -0.3332 -0.3747
 
              Baa    -0.0207    -2.782    -0.993    -0.928  0.3791 -0.0980  0.9202
     4 C(13)  Bbb    -0.0148    -1.988    -0.709    -0.663 -0.0779  0.9875  0.1373
              Bcc     0.0355     4.769     1.702     1.591  0.9221  0.1237 -0.3667
 
              Baa    -0.3558   -47.742   -17.036   -15.925  0.3427  0.9259 -0.1590
     5 C(13)  Bbb    -0.3493   -46.879   -16.728   -15.637  0.6361 -0.1042  0.7645
              Bcc     0.7051    94.621    33.763    31.562  0.6913 -0.3632 -0.6247
 
              Baa    -0.0090    -4.802    -1.713    -1.602  0.7073 -0.4890  0.5105
     6 H(1)   Bbb    -0.0026    -1.391    -0.496    -0.464  0.2357  0.8439  0.4819
              Bcc     0.0116     6.192     2.210     2.065 -0.6664 -0.2205  0.7122
 
              Baa    -0.0096    -5.128    -1.830    -1.711  0.3652  0.3432  0.8654
     7 H(1)   Bbb    -0.0053    -2.812    -1.004    -0.938  0.9191 -0.2805 -0.2766
              Bcc     0.0149     7.941     2.833     2.649  0.1478  0.8964 -0.4178
 
              Baa    -0.1195   -63.750   -22.748   -21.265  0.3171  0.9267 -0.2015
     8 H(1)   Bbb    -0.0906   -48.337   -17.248   -16.123  0.3662  0.0764  0.9274
              Bcc     0.2101   112.087    39.996    37.388  0.8749 -0.3678 -0.3151
 
              Baa    -0.0458   -24.413    -8.711    -8.143  0.6631  0.6789  0.3154
     9 H(1)   Bbb    -0.0066    -3.542    -1.264    -1.182 -0.5734  0.1899  0.7969
              Bcc     0.0524    27.955     9.975     9.325 -0.4811  0.7093 -0.5152
 
              Baa    -0.0452   -24.096    -8.598    -8.038  0.0902  0.8659 -0.4920
    10 H(1)   Bbb    -0.0056    -2.962    -1.057    -0.988  0.8844 -0.2968 -0.3602
              Bcc     0.0507    27.058     9.655     9.025  0.4580  0.4026  0.7926
 
              Baa    -0.0051    -2.699    -0.963    -0.900 -0.2241  0.9334 -0.2802
    11 H(1)   Bbb    -0.0037    -1.965    -0.701    -0.655 -0.4153  0.1686  0.8939
              Bcc     0.0087     4.664     1.664     1.556  0.8817  0.3167  0.3498
 
              Baa    -0.0133    -7.118    -2.540    -2.374  0.5494  0.6603 -0.5120
    12 H(1)   Bbb    -0.0054    -2.887    -1.030    -0.963 -0.5587  0.7459  0.3625
              Bcc     0.0188    10.006     3.570     3.338  0.6213  0.0868  0.7788
 

 ---------------------------------------------------------------------------------

 No NMR shielding tensors so no spin-rotation constants.
 Leave Link  601 at Sat Jun 22 12:34:01 2019, MaxMem=   671088640 cpu:               7.4 elap:               0.4
 (Enter /shared/centos7/gaussian/g16/l701.exe)
 SCFChk:  SCF convergence  5.27D-09 required  1.00D-08
 ... and contract with generalized density number  0.
 Compute integral second derivatives.
 Entering OneElI...
 Calculate overlap and kinetic energy integrals
    NBasis = 280  MinDer = 2  MaxDer = 2
 Requested accuracy = 0.1000D-12
 PrmmSu-InSpLW:  IPartL=    0 NPrtUS=   20 NPrtUL=    1 DoSpLW=F IThBeg=    0 IThEnd=   19 NThAct=   20.
 PrsmSu:  NPrtUS=  20 ThrOK=T IAlg=1 NPAlg=1 LenDen=           0 ISkipM=0 DoSpLW=F IThBeg=    0 IThEnd=   19.
 Prism:   IPart=     0 DynPar=F LinDyn=F Incr=           2.
 PRISM was handed    33429256 working-precision words and  4263 shell-pairs
 PRISM was handed    33429256 working-precision words and  4263 shell-pairs
 PRISM was handed    33429256 working-precision words and  4263 shell-pairs
 PRISM was handed    33429256 working-precision words and  4263 shell-pairs
 PRISM was handed    33429256 working-precision words and  4263 shell-pairs
 PRISM was handed    33429256 working-precision words and  4263 shell-pairs
 PRISM was handed    33429256 working-precision words and  4263 shell-pairs
 PRISM was handed    33429256 working-precision words and  4263 shell-pairs
 PRISM was handed    33429256 working-precision words and  4263 shell-pairs
 PRISM was handed    33429256 working-precision words and  4263 shell-pairs
 PRISM was handed    33429256 working-precision words and  4263 shell-pairs
 PRISM was handed    33429256 working-precision words and  4263 shell-pairs
 PRISM was handed    33429256 working-precision words and  4263 shell-pairs
 PRISM was handed    33429256 working-precision words and  4263 shell-pairs
 PRISM was handed    33429256 working-precision words and  4263 shell-pairs
 PRISM was handed    33429256 working-precision words and  4263 shell-pairs
 PRISM was handed    33429256 working-precision words and  4263 shell-pairs
 PRISM was handed    33429256 working-precision words and  4263 shell-pairs
 PRISM was handed    33429256 working-precision words and  4263 shell-pairs
 PRISM was handed    33429256 working-precision words and  4263 shell-pairs
 IPart= 18 NShTot=         195 NBatch=          26 AvBLen=         7.5
 IPart= 19 NShTot=         195 NBatch=          26 AvBLen=         7.5
 IPart= 17 NShTot=         196 NBatch=          26 AvBLen=         7.5
 IPart=  9 NShTot=         207 NBatch=          32 AvBLen=         6.5
 IPart= 10 NShTot=         205 NBatch=          31 AvBLen=         6.6
 IPart=  5 NShTot=         220 NBatch=          43 AvBLen=         5.1
 IPart= 11 NShTot=         203 NBatch=          30 AvBLen=         6.8
 IPart=  0 NShTot=         262 NBatch=          72 AvBLen=         3.6
 IPart=  3 NShTot=         235 NBatch=          50 AvBLen=         4.7
 IPart= 15 NShTot=         197 NBatch=          26 AvBLen=         7.6
 IPart= 16 NShTot=         197 NBatch=          26 AvBLen=         7.6
 IPart= 14 NShTot=         198 NBatch=          27 AvBLen=         7.3
 IPart= 12 NShTot=         202 NBatch=          30 AvBLen=         6.7
 IPart= 13 NShTot=         200 NBatch=          29 AvBLen=         6.9
 IPart=  1 NShTot=         249 NBatch=          62 AvBLen=         4.0
 IPart=  2 NShTot=         237 NBatch=          51 AvBLen=         4.6
 IPart=  7 NShTot=         211 NBatch=          34 AvBLen=         6.2
 IPart=  6 NShTot=         213 NBatch=          36 AvBLen=         5.9
 IPart=  4 NShTot=         232 NBatch=          49 AvBLen=         4.7
 IPart=  8 NShTot=         209 NBatch=          33 AvBLen=         6.3
 PrSmSu:  NxtVal=             41.
 Entering OneElI...
 Calculate potential energy integrals
    NBasis = 280  MinDer = 2  MaxDer = 2
 Requested accuracy = 0.1000D-12
 PrmmSu-InSpLW:  IPartL=    0 NPrtUS=   20 NPrtUL=    1 DoSpLW=F IThBeg=    0 IThEnd=   19 NThAct=   20.
 PrsmSu:  NPrtUS=  20 ThrOK=T IAlg=1 NPAlg=1 LenDen=           0 ISkipM=0 DoSpLW=F IThBeg=    0 IThEnd=   19.
 Prism:   IPart=     0 DynPar=F LinDyn=F Incr=          24.
 PRISM was handed    33447939 working-precision words and  4034 shell-pairs
 PRISM was handed    33447939 working-precision words and  4034 shell-pairs
 PRISM was handed    33447939 working-precision words and  4034 shell-pairs
 PRISM was handed    33447939 working-precision words and  4034 shell-pairs
 PRISM was handed    33447939 working-precision words and  4034 shell-pairs
 PRISM was handed    33447939 working-precision words and  4034 shell-pairs
 PRISM was handed    33447939 working-precision words and  4034 shell-pairs
 PRISM was handed    33447939 working-precision words and  4034 shell-pairs
 PRISM was handed    33447939 working-precision words and  4034 shell-pairs
 PRISM was handed    33447939 working-precision words and  4034 shell-pairs
 PRISM was handed    33447939 working-precision words and  4034 shell-pairs
 PRISM was handed    33447939 working-precision words and  4034 shell-pairs
 PRISM was handed    33447939 working-precision words and  4034 shell-pairs
 PRISM was handed    33447939 working-precision words and  4034 shell-pairs
 PRISM was handed    33447939 working-precision words and  4034 shell-pairs
 PRISM was handed    33447939 working-precision words and  4034 shell-pairs
 PRISM was handed    33447939 working-precision words and  4034 shell-pairs
 PRISM was handed    33447939 working-precision words and  4034 shell-pairs
 PRISM was handed    33447939 working-precision words and  4034 shell-pairs
 PRISM was handed    33447939 working-precision words and  4034 shell-pairs
 IPart= 18 NShTot=        2160 NBatch=         180 AvBLen=        12.0
 IPart= 16 NShTot=        2244 NBatch=         187 AvBLen=        12.0
 IPart= 14 NShTot=        2280 NBatch=         190 AvBLen=        12.0
 IPart= 19 NShTot=        2136 NBatch=         178 AvBLen=        12.0
 IPart=  9 NShTot=        2376 NBatch=         198 AvBLen=        12.0
 IPart= 11 NShTot=        2364 NBatch=         197 AvBLen=        12.0
 IPart= 17 NShTot=        2232 NBatch=         186 AvBLen=        12.0
 IPart= 12 NShTot=        2328 NBatch=         194 AvBLen=        12.0
 IPart= 15 NShTot=        2280 NBatch=         190 AvBLen=        12.0
 IPart= 13 NShTot=        2316 NBatch=         193 AvBLen=        12.0
 IPart=  7 NShTot=        2436 NBatch=         203 AvBLen=        12.0
 IPart= 10 NShTot=        2364 NBatch=         197 AvBLen=        12.0
 IPart=  2 NShTot=        2688 NBatch=         224 AvBLen=        12.0
 IPart=  4 NShTot=        2568 NBatch=         214 AvBLen=        12.0
 IPart=  5 NShTot=        2460 NBatch=         205 AvBLen=        12.0
 IPart=  1 NShTot=        2784 NBatch=         232 AvBLen=        12.0
 IPart=  8 NShTot=        2400 NBatch=         200 AvBLen=        12.0
 IPart=  3 NShTot=        2640 NBatch=         220 AvBLen=        12.0
 IPart=  6 NShTot=        2436 NBatch=         203 AvBLen=        12.0
 IPart=  0 NShTot=        2916 NBatch=         243 AvBLen=        12.0
 PrSmSu:  NxtVal=            481.
 Polarizability after L701:
                1             2             3 
      1  0.000000D+00
      2  0.000000D+00  0.000000D+00
      3  0.000000D+00  0.000000D+00  0.000000D+00
 Dipole Derivatives after L701:
                 1             2             3             4             5 
      1  -0.108813D+01  0.100352D+01 -0.451740D+00 -0.823562D+00 -0.503370D+00
      2   0.180984D+00 -0.387384D+00  0.107756D+00 -0.419221D-01 -0.253007D+00
      3  -0.200305D+00  0.313109D+00 -0.477647D+00 -0.238029D+00 -0.302276D+00
                 6             7             8             9            10 
      1  -0.101404D+01 -0.431576D-01 -0.223090D+00  0.247934D+00 -0.523424D+00
      2   0.170399D-01  0.531337D-01 -0.223176D+00  0.404787D-01  0.160548D+00
      3  -0.537321D+00 -0.170071D+00  0.108166D+00 -0.217685D+00  0.162386D+00
                11            12            13            14            15 
      1  -0.233172D+00  0.616736D+00 -0.454250D+00  0.195019D+00 -0.418690D+00
      2  -0.446937D+00 -0.559105D-01 -0.112497D+00 -0.105375D+01  0.946550D-01
      3   0.133632D+00 -0.746856D+00 -0.392669D+00 -0.120843D+00 -0.670972D+00
                16            17            18            19            20 
      1   0.505564D+00 -0.909737D-01 -0.452602D+00  0.112534D-01  0.152168D+00
      2  -0.347126D-01  0.134608D+00  0.526085D-01 -0.184098D+00  0.449762D+00
      3  -0.249997D+00  0.857341D-01  0.475710D+00  0.145688D+00 -0.218515D+00
                21            22            23            24            25 
      1  -0.915306D-01  0.428248D-01  0.621584D-01  0.433875D-01  0.275598D+00
      2  -0.851116D-01  0.207839D-01  0.185438D+00 -0.108490D+00 -0.344284D+00
      3   0.298185D+00  0.125382D+00 -0.606809D-01  0.271177D+00  0.807353D-01
                26            27            28            29            30 
      1  -0.271446D+00  0.232044D+00  0.191713D+00  0.591106D-01  0.103747D+00
      2   0.646791D+00 -0.467628D+00  0.347342D+00  0.330263D+00  0.427170D+00
      3  -0.126367D+00  0.202043D+00  0.258793D+00  0.158027D+00  0.441142D+00
                31            32            33            34            35 
      1   0.107147D+01 -0.822430D+00  0.458646D+00  0.834107D+00  0.672503D+00
      2  -0.570785D-01  0.323755D+00  0.211632D-02  0.118003D-01  0.293633D+00
      3   0.240810D+00 -0.226429D+00  0.401550D+00  0.237277D+00  0.256445D+00
                36 
      1   0.726104D+00
      2  -0.246836D-01
      3   0.560674D+00
 Hessian after L701:
                1             2             3             4             5 
      1  0.779000D+01
      2 -0.409671D-01  0.101227D+02
      3 -0.447756D+01 -0.948364D+00  0.902009D+01
      4  0.282296D+00  0.667771D-02  0.959201D-01  0.966651D+01
      5  0.223244D-03 -0.165496D+00  0.386099D-03  0.266934D+00  0.789149D+01
      6  0.845968D-01 -0.618173D-02 -0.142779D+00 -0.279191D+01  0.276769D+01
      7  0.354122D+00  0.146154D+00 -0.523160D-01 -0.607716D+01 -0.814490D+00
      8  0.110466D+00 -0.169855D+00 -0.207903D-02 -0.773163D+00 -0.291168D+01
      9 -0.213199D-01  0.515561D-02 -0.184674D+00  0.133129D+01 -0.424040D+01
     10 -0.482941D+01  0.159713D+01  0.358406D+01  0.243509D+00 -0.756153D-01
     11  0.158880D+01 -0.647783D+01  0.201118D+01 -0.155386D+00 -0.141951D+00
     12  0.361394D+01  0.202599D+01 -0.292033D+01  0.599492D-02 -0.153695D-01
     13  0.921899D-01  0.426193D+00 -0.731842D-01  0.281803D+00 -0.542613D+00
     14  0.344130D+00  0.267821D+00  0.271268D-01 -0.456403D+00 -0.300969D-01
     15 -0.274761D-01  0.113668D+00 -0.297949D+00  0.369982D-01 -0.213859D-01
     16  0.121615D+00 -0.116567D+00 -0.295264D+00  0.265615D-01 -0.121603D-01
     17 -0.122367D+00  0.830108D-01 -0.738763D-01 -0.731903D-02 -0.121774D-01
     18 -0.334557D+00 -0.634250D-01  0.816218D-01 -0.248888D-01  0.767701D-02
     19  0.806609D-01 -0.134692D+00 -0.122411D+00  0.173618D+00 -0.177957D-02
     20 -0.191038D+00  0.127364D+00 -0.113333D+00  0.776895D-01 -0.141150D+00
     21 -0.142340D+00 -0.812596D-01 -0.265481D+00 -0.931823D-01 -0.486565D-03
     22  0.592886D-01  0.765321D-01  0.202498D-01  0.153633D+00  0.258243D-01
     23  0.605536D-01 -0.301639D-01  0.658394D-02  0.417087D-01  0.415706D-01
     24 -0.150701D-02 -0.868775D-02 -0.620051D-01 -0.146211D+00  0.121104D+00
     25 -0.326296D-01  0.115979D-01 -0.414484D-02  0.233230D-01 -0.519114D-01
     26  0.394200D-01  0.645872D-01 -0.203025D-01 -0.564278D-01  0.332217D-01
     27 -0.138316D-01 -0.481914D-01 -0.412736D-01  0.286317D-01 -0.334165D-01
     28  0.348926D-01  0.832437D-01  0.789059D-01 -0.215191D-01 -0.248715D-01
     29  0.764450D-01  0.262293D-01  0.721684D-01 -0.637335D-01  0.100899D-01
     30  0.819592D-01  0.828971D-01  0.205466D-01 -0.466370D-01  0.585621D-01
     31 -0.397532D+01 -0.206345D+01  0.123555D+01  0.282211D-01 -0.917713D-02
     32 -0.188019D+01 -0.384496D+01 -0.963997D+00 -0.172069D-01 -0.398969D-02
     33  0.121837D+01 -0.107794D+01 -0.520486D+01  0.141781D-01 -0.352290D-02
     34  0.222991D-01  0.815324D-02  0.101889D-01 -0.478080D+01  0.123964D+01
     35  0.145244D-01 -0.343355D-02  0.450340D-02  0.113663D+01 -0.456983D+01
     36  0.197305D-01  0.634146D-02 -0.290211D-02  0.158982D+01  0.135917D+01
                6             7             8             9            10 
      6  0.510138D+01
      7  0.136420D+01  0.504742D+01
      8 -0.417536D+01  0.204716D+01  0.616091D+01
      9 -0.253185D+00 -0.708172D+00  0.408131D+01  0.383829D+01
     10 -0.869532D-01  0.398264D+00  0.798423D-01 -0.298620D+00  0.143844D+02
     11  0.252071D-01  0.523856D-01 -0.274908D+00 -0.302512D-01 -0.223775D+01
     12 -0.184573D+00 -0.297595D+00 -0.315642D-01 -0.137758D+00 -0.229693D+01
     13  0.150974D-02  0.241525D+00 -0.126337D+00 -0.441523D-01 -0.398836D+01
     14 -0.441117D-02 -0.401682D-01 -0.166686D+00 -0.949001D-01  0.230479D+01
     15 -0.448473D+00 -0.948604D-01 -0.294844D-01 -0.102539D+00 -0.403017D+00
     16 -0.218764D-01  0.246286D-01 -0.611299D-02 -0.194532D-01 -0.307455D+01
     17  0.112247D-02 -0.660483D-03 -0.160330D-01  0.494940D-02 -0.265981D+00
     18 -0.320034D-02 -0.349316D-01  0.369298D-02  0.393356D-02 -0.101094D+01
     19 -0.498757D-01 -0.394709D-02  0.340582D-01 -0.102417D-01 -0.327983D+01
     20 -0.228213D-01  0.649654D-01  0.149204D-01 -0.354761D-01 -0.125503D+01
     21 -0.124921D+00 -0.373555D-01 -0.289471D-01 -0.487936D-02  0.618263D+00
     22 -0.154156D+00 -0.139808D+00 -0.136575D+01 -0.253297D+00  0.175058D-01
     23  0.145226D+00 -0.141992D+01 -0.273543D+01  0.119011D-01  0.227398D-01
     24 -0.832982D-01 -0.123247D+00 -0.548609D-01 -0.319719D+01 -0.589725D-01
     25  0.127268D-01  0.721955D-01 -0.698753D-01 -0.125985D-01  0.612586D-01
     26 -0.151670D-01 -0.813782D-01  0.134083D-01  0.737969D-02 -0.253917D-01
     27 -0.146485D-01 -0.209479D-02  0.994517D-04 -0.389571D-01  0.900232D-02
     28 -0.124204D-01 -0.627394D-01 -0.194595D-01  0.120546D-01 -0.291064D-01
     29  0.359301D-01 -0.462944D-01  0.412990D-01  0.728173D-01 -0.157288D+00
     30 -0.282280D-01 -0.454654D-01  0.965665D-01  0.294963D-01 -0.606532D-01
     31  0.484761D-02  0.464229D-01 -0.216366D-02  0.221995D-02  0.496777D-01
     32 -0.189422D-03 -0.209405D-01 -0.912310D-02 -0.207493D-02 -0.113457D-01
     33 -0.759641D-02  0.126680D-01 -0.178780D-03 -0.110978D-01 -0.171279D-01
     34  0.164932D+01  0.990702D-01  0.913381D-01  0.222917D-01  0.466195D-01
     35  0.124895D+01  0.113194D+00  0.531800D-01  0.219596D+00  0.238928D-01
     36 -0.381047D+01  0.191727D-01  0.140807D+00  0.585581D-01  0.218794D-01
               11            12            13            14            15 
     11  0.158403D+02
     12 -0.100280D+01  0.142279D+02
     13  0.217672D+01 -0.413538D+00  0.103970D+02
     14 -0.259600D+01 -0.723147D+00 -0.109801D+01  0.101438D+02
     15 -0.684518D+00 -0.545190D+01 -0.211990D+00  0.283870D+00  0.127098D+02
     16 -0.286374D+00 -0.103440D+01 -0.608159D-01 -0.132532D+00  0.981492D-01
     17 -0.364087D+01  0.403994D+00 -0.108965D+00  0.854640D-01  0.755064D-01
     18  0.432095D+00 -0.195639D+01  0.123473D+00  0.972225D-01  0.895259D-01
     19 -0.111339D+01  0.468693D+00  0.120195D+00 -0.412029D-01  0.156055D-01
     20 -0.264053D+01 -0.642931D+00  0.887416D-02 -0.901461D-01  0.806879D-01
     21 -0.753536D+00 -0.377177D+01 -0.186464D-02  0.847456D-01  0.468932D-01
     22  0.547687D-01 -0.303884D-01 -0.925835D+00 -0.678719D+00 -0.937595D+00
     23 -0.227596D-01 -0.195907D-01 -0.591494D+00 -0.173369D+01  0.466814D+00
     24 -0.419365D-01  0.878854D-02 -0.101940D+01  0.577558D+00 -0.122860D+01
     25 -0.515537D-01  0.274797D-01 -0.325550D+01 -0.666774D+00  0.597386D+00
     26 -0.580510D-01  0.603340D-01 -0.726132D+00 -0.251132D+01 -0.987819D+00
     27  0.217038D-01  0.190486D-01  0.585646D+00 -0.872428D+00 -0.288897D+01
     28 -0.119946D+00 -0.493751D-01 -0.295346D+01  0.438491D+00  0.928607D+00
     29 -0.331595D-01 -0.767954D-01  0.566783D+00 -0.334696D+01  0.709524D+00
     30 -0.729919D-01  0.112841D+00  0.104334D+01  0.623423D+00 -0.239970D+01
[...]
    D3       -3.12848   0.00000   0.00000   0.00126   0.00126  -3.12722
    D4       -1.70939   0.00000   0.00000   0.00044   0.00044  -1.70894
    D5        0.07997  -0.00000   0.00000  -0.00844  -0.00844   0.07153
    D6       -1.20381   0.00000   0.00000   0.00100   0.00100  -1.20281
    D7        0.76153   0.00000   0.00000   0.00107   0.00107   0.76260
    D8        3.12958   0.00000   0.00000   0.00103   0.00103   3.13060
    D9        2.90716   0.00000   0.00000   0.00106   0.00106   2.90822
   D10       -1.41069   0.00000   0.00000   0.00113   0.00113  -1.40956
   D11        0.95736   0.00000   0.00000   0.00109   0.00109   0.95845
   D12        0.86565   0.00000   0.00000   0.00105   0.00105   0.86670
   D13        2.83099   0.00000   0.00000   0.00112   0.00112   2.83211
   D14       -1.08415   0.00000   0.00000   0.00108   0.00108  -1.08307
   D15       -0.96322   0.00000   0.00000   0.00794   0.00794  -0.95528
   D16       -3.08300   0.00000   0.00000   0.00787   0.00787  -3.07512
   D17        1.14080   0.00000   0.00000   0.00793   0.00793   1.14873
         Item               Value     Threshold  Converged?
 Maximum Force            0.000025     0.000450     YES
 RMS     Force            0.000006     0.000300     YES
 Maximum Displacement     0.003748     0.001800     NO 
 RMS     Displacement     0.001048     0.001200     YES
 Predicted change in Energy=-5.202598D-08
                           ----------------------------
                           ! Non-Optimized Parameters !
                           ! (Angstroms and Degrees)  !
 --------------------------                            --------------------------
 ! Name  Definition              Value          Derivative Info.                !
 --------------------------------------------------------------------------------
 ! R1    R(1,4)                  1.4091         -DE/DX =    0.0                 !
 ! R2    R(1,11)                 0.9601         -DE/DX =    0.0                 !
 ! R3    R(2,3)                  1.3882         -DE/DX =    0.0                 !
 ! R4    R(2,12)                 0.9652         -DE/DX =    0.0                 !
 ! R5    R(3,8)                  1.1624         -DE/DX =    0.0                 !
 ! R6    R(4,5)                  1.498          -DE/DX =    0.0                 !
 ! R7    R(4,6)                  1.1006         -DE/DX =    0.0                 !
 ! R8    R(4,7)                  1.0913         -DE/DX =    0.0                 !
 ! R9    R(5,8)                  1.3499         -DE/DX =    0.0                 !
 ! R10   R(5,9)                  1.0884         -DE/DX =    0.0                 !
 ! R11   R(5,10)                 1.0872         -DE/DX =    0.0                 !
 ! A1    A(4,1,11)             108.9323         -DE/DX =    0.0                 !
 ! A2    A(3,2,12)             103.0543         -DE/DX =    0.0                 !
 ! A3    A(2,3,8)              103.6434         -DE/DX =    0.0                 !
 ! A4    A(1,4,5)              113.3985         -DE/DX =    0.0                 !
 ! A5    A(1,4,6)              111.0509         -DE/DX =    0.0                 !
 ! A6    A(1,4,7)              106.2139         -DE/DX =    0.0                 !
 ! A7    A(5,4,6)              109.2586         -DE/DX =    0.0                 !
 ! A8    A(5,4,7)              109.7198         -DE/DX =    0.0                 !
 ! A9    A(6,4,7)              106.9626         -DE/DX =    0.0                 !
 ! A10   A(4,5,8)              103.9052         -DE/DX =    0.0                 !
 ! A11   A(4,5,9)              115.9495         -DE/DX =    0.0                 !
 ! A12   A(4,5,10)             115.3294         -DE/DX =    0.0                 !
 ! A13   A(8,5,9)              103.3208         -DE/DX =    0.0                 !
 ! A14   A(8,5,10)             102.8141         -DE/DX =    0.0                 !
 ! A15   A(9,5,10)             113.2182         -DE/DX =    0.0                 !
 ! A16   A(3,8,5)              169.8616         -DE/DX =    0.0                 !
 ! D1    D(11,1,4,5)           -58.5984         -DE/DX =    0.0                 !
 ! D2    D(11,1,4,6)            64.8804         -DE/DX =    0.0                 !
 ! D3    D(11,1,4,7)          -179.1765         -DE/DX =    0.0                 !
 ! D4    D(12,2,3,8)           -97.9152         -DE/DX =    0.0                 !
 ! D5    D(2,3,8,5)              4.0985         -DE/DX =    0.0                 !
 ! D6    D(1,4,5,8)            -68.916          -DE/DX =    0.0                 !
 ! D7    D(1,4,5,9)             43.6935         -DE/DX =    0.0                 !
 ! D8    D(1,4,5,10)           179.3704         -DE/DX =    0.0                 !
 ! D9    D(6,4,5,8)            166.6287         -DE/DX =    0.0                 !
 ! D10   D(6,4,5,9)            -80.7618         -DE/DX =    0.0                 !
 ! D11   D(6,4,5,10)            54.9151         -DE/DX =    0.0                 !
 ! D12   D(7,4,5,8)             49.6584         -DE/DX =    0.0                 !
 ! D13   D(7,4,5,9)            162.2679         -DE/DX =    0.0                 !
 ! D14   D(7,4,5,10)           -62.0553         -DE/DX =    0.0                 !
 ! D15   D(4,5,8,3)            -54.7338         -DE/DX =    0.0                 !
 ! D16   D(9,5,8,3)           -176.1916         -DE/DX =    0.0                 !
 ! D17   D(10,5,8,3)            65.8172         -DE/DX =    0.0                 !
 --------------------------------------------------------------------------------
 GradGradGradGradGradGradGradGradGradGradGradGradGradGradGradGradGradGrad

 Leave Link  103 at Sat Jun 22 12:51:15 2019, MaxMem=   671088640 cpu:               0.6 elap:               0.1
 (Enter /shared/centos7/gaussian/g16/l9999.exe)

 ----------------------------------------------------------------------

 Electric dipole moment (input orientation):
 (Debye = 10**-18 statcoulomb cm , SI units = C m)
                  (au)            (Debye)         (10**-30 SI)
   Tot        0.136471D+01      0.346875D+01      0.115705D+02
   x         -0.231470D+00     -0.588338D+00     -0.196248D+01
   y          0.104359D+01      0.265253D+01      0.884789D+01
   z          0.848406D+00      0.215643D+01      0.719309D+01

 Dipole polarizability, Alpha (input orientation).
 (esu units = cm**3 , SI units = C**2 m**2 J**-1)
 Alpha(0;0):
               (au)            (10**-24 esu)      (10**-40 SI)
   iso        0.496668D+02      0.735986D+01      0.818895D+01
   aniso      0.273609D+02      0.405447D+01      0.451121D+01
   xx         0.633674D+02      0.939008D+01      0.104479D+02
   yx        -0.967985D+01     -0.143441D+01     -0.159599D+01
   yy         0.442501D+02      0.655719D+01      0.729586D+01
   zx        -0.356418D+01     -0.528157D+00     -0.587654D+00
   zy         0.550722D+00      0.816086D-01      0.908018D-01
   zz         0.413829D+02      0.613232D+01      0.682313D+01

 ----------------------------------------------------------------------

 Dipole orientation:
     8         -3.63741569         -0.39266435         -1.01029164
     8          3.42619367         -0.90197900         -1.53071083
     8          2.68284839          1.59303689         -1.20781100
     6         -2.10239204         -1.18979137          1.01422107
     6         -0.57055123          0.90008672          2.15405299
     1         -3.23869445         -2.09724335          2.50117076
     1         -0.84657046         -2.63594590          0.24992986
     1          1.12819621          1.47454943          0.33975844
     1         -1.55901036          2.67794959          2.45774230
     1          0.62012895          0.35459825          3.73705160
     1         -4.76226661          0.90323321         -0.42133935
     1          4.93014444         -1.01974993         -0.50547754

 Electric dipole moment (dipole orientation):
 (Debye = 10**-18 statcoulomb cm , SI units = C m)
                  (au)            (Debye)         (10**-30 SI)
   Tot        0.136471D+01      0.346875D+01      0.115705D+02
   x          0.000000D+00      0.000000D+00      0.000000D+00
   y          0.000000D+00      0.000000D+00      0.000000D+00
   z          0.136471D+01      0.346875D+01      0.115705D+02

 Dipole polarizability, Alpha (dipole orientation).
 (esu units = cm**3 , SI units = C**2 m**2 J**-1)
 Alpha(0;0):
               (au)            (10**-24 esu)      (10**-40 SI)
   iso        0.496668D+02      0.735986D+01      0.818895D+01
   aniso      0.273609D+02      0.405447D+01      0.451121D+01
   xx         0.599191D+02      0.887909D+01      0.987932D+01
   yx        -0.161296D+01     -0.239017D+00     -0.265942D+00
   yy         0.416032D+02      0.616496D+01      0.685944D+01
   zx        -0.126019D+02     -0.186741D+01     -0.207777D+01
   zy         0.818862D+00      0.121343D+00      0.135012D+00
   zz         0.474782D+02      0.703554D+01      0.782810D+01

 ----------------------------------------------------------------------

 Test job not archived.
 1\1\GINC-C0114\Freq\UM062X\CC-pVTZ\C2H7O3(2)\HARMS.N\22-Jun-2019\0\\#P
  Geom=AllCheck Guess=TCheck SCRF=Check Test GenChk UM062X/CC-pVTZ Freq
 \\Gaussian input prepared by ASE\\0,2\O,-1.8166326969,-0.6956320748,-0
 .499939375\O,1.8801136636,-0.7796029737,0.1689414127\O,1.5703455838,0.
 1638208244,-0.8011782585\C,-1.2341881788,-0.0811484912,0.6264138308\C,
 -0.4518073218,1.1520625915,0.2931941438\H,-1.9966926244,0.1654173766,1
 .3808034337\H,-0.5740323693,-0.8265994729,1.0728935536\H,0.6183377343,
 0.684167328,-0.3836554482\H,-0.9176110148,1.8346808188,-0.415043758\H,
 0.0019287807,1.6584555157,1.1415663399\H,-2.399333243,-0.0664316279,-0
 .9315434918\H,2.5648486867,-0.3409318146,0.6888606171\\Version=EM64L-G
 16RevA.03\State=2-A\HF=-305.8943829\S2=0.75981\S2-1=0.\S2A=0.750047\RM
 SD=3.122e-09\RMSF=8.500e-06\ZeroPoint=0.0909338\Thermal=0.0982605\Dipo
 le=-0.2314699,1.0435856,0.8484059\DipoleDeriv=-0.5943142,-0.2381482,-0
 .1442445,-0.28656,-0.4256571,-0.1389274,-0.258852,-0.1963287,-0.709077
 5,-0.4306781,0.2043346,0.0762407,0.504468,-0.4150241,-0.1014371,-0.560
 9493,0.3925697,-0.1644416,0.4021952,-0.3819351,-0.1153543,-0.844871,0.
 2216503,0.1719414,0.4192881,-0.2963824,-0.2016752,0.2511135,0.1982134,
 0.1761392,0.3231768,0.2999256,0.1749634,0.4395358,0.1824511,0.486512,0
 .6860359,-0.3621421,-0.152415,-0.2411232,0.0447801,-0.0093972,-0.43793
 39,0.228375,0.1763043,-0.1088759,0.0142812,0.1223838,-0.1169391,0.0483
 114,-0.0379623,0.0249043,-0.0532367,-0.0808688,0.0373476,0.0324379,-0.
 0629788,0.0218442,-0.0013232,0.0408861,-0.0673135,-0.0061348,0.0274454
 ,-0.7625378,0.4294908,0.2422393,0.5338548,-0.1133918,-0.1245943,0.4045
 319,-0.1702658,-0.0030864,-0.0878441,0.0953627,-0.0523143,0.0338499,-0
 .0186229,0.0450493,0.0597917,0.0157942,-0.0157178,-0.0543503,0.0217967
 ,-0.0215957,-0.0220305,-0.0047067,-0.0369207,-0.0289301,-0.0847043,-0.
 0392728,0.328303,0.0636316,-0.0158875,0.1083462,0.1701111,0.027897,0.0
 071185,0.0040036,0.2777084,0.3336052,-0.0773236,-0.052213,-0.014016,0.
 1939474,-0.0114982,-0.0011915,-0.0161407,0.24617\Polar=63.367369,-9.67
 9848,44.2501272,-3.5641815,0.5507221,41.382947\Quadrupole=2.8363745,-2
 .5115283,-0.3248461,-1.8936643,3.6385371,-0.9291079\PG=C01 [X(C2H7O3)]
 \NImag=1\\0.30342419,-0.16602418,0.39448257,0.24921894,-0.03645977,0.3
 6313797,-0.00048220,-0.00068329,-0.00088269,0.32878622,0.00048555,0.00
 139138,0.00152742,0.13098190,0.33169190,0.00036312,-0.00203056,-0.0012
 7870,0.24671695,-0.01802153,0.30308781,-0.00058109,0.00130964,0.001311
 35,-0.05664005,0.01183542,-0.02297014,0.09905907,-0.00002354,-0.001624
 42,-0.00191360,0.04203079,-0.14277179,0.13194647,-0.04007521,0.1346426
 7,0.00010320,0.00188109,0.00249997,-0.05427934,0.10938159,-0.17180779,
 0.00811248,-0.13215812,0.25590439,-0.09952343,-0.00466724,-0.06403294,
 0.00011407,0.00168681,-0.00492156,0.00693123,-0.00771131,0.00208118,0.
 54161523,-0.03187448,-0.12179486,-0.08089205,0.00142582,-0.00324347,0.
 00619599,-0.00331491,0.00622963,-0.00567890,-0.06073338,0.52488608,-0.
 07403643,-0.04395178,-0.18912040,0.00103095,-0.00335853,0.00545772,-0.
 00740644,0.00868557,-0.00421275,0.01969448,-0.02602005,0.52837968,-0.0
 1217364,-0.01916428,-0.00422279,0.00416657,-0.01748223,0.02632338,-0.1
 0038379,0.07572067,0.01844598,-0.10219769,-0.05736627,0.00047215,0.308
 95559,-0.01455833,-0.01900877,-0.00576960,-0.00004648,0.00433827,-0.00
 924226,0.04128500,-0.02584398,-0.01028782,-0.07125570,-0.16383226,0.03
 846305,0.07362755,0.48964453,-0.02566422,-0.03678006,-0.00460283,-0.00
 444162,0.01358643,-0.01787725,0.06616036,-0.05041663,-0.00832546,0.010
 44323,0.04599964,-0.08264348,0.18182346,-0.05614370,0.49073985,0.01450
 417,-0.00705126,-0.01590126,-0.00030751,0.00043127,-0.00058627,0.00069
 983,-0.00063304,0.00020215,-0.17444584,0.04281141,0.11383797,-0.013053
 65,-0.00031741,0.01109508,0.18557694,0.00540051,-0.00506428,-0.0200339
 3,-0.00010930,0.00179475,-0.00330653,0.00238449,-0.00367110,0.00257420
 ,0.03463470,-0.05549071,-0.02736570,-0.01922869,0.00051574,0.01672028,
 -0.03730602,0.06438192,0.00857290,-0.01608670,-0.03350482,0.00009978,0
 .00014614,-0.00020064,0.00063486,-0.00087655,0.00017858,0.10876216,-0.
 03329139,-0.14530222,0.01227850,0.00303082,-0.00559763,-0.12238663,0.0
 4300913,0.17373404,-0.01133769,0.00694657,-0.01282786,-0.00047926,0.00
 004776,0.00004148,0.00032281,0.00031293,-0.00006469,-0.14279245,0.1076
 2135,-0.06291058,0.01268809,-0.01187953,0.00896965,-0.01414871,0.01783
 505,-0.00722238,0.15729899,-0.01283952,0.01321157,-0.01011122,0.000594
 45,0.00040503,-0.00185136,0.00005588,-0.00074735,0.00139566,0.11606708
 ,-0.17841232,0.07473588,0.01338407,-0.02023265,0.01281245,0.00422916,-
 0.00381016,0.00233899,-0.11578958,0.19278365,-0.02534902,0.01766204,-0
 .02176219,-0.00008643,-0.00021939,0.00011731,-0.00023689,0.00004896,-0
 .00049087,-0.05660459,0.06293887,-0.08401308,-0.00177886,0.00970864,-0
 .00377804,0.01280629,-0.01443363,0.00891175,0.07371341,-0.07554464,0.1
 0435898,0.00207016,-0.00086981,-0.00307918,-0.01062862,0.03319692,-0.0
 4546121,0.04034407,-0.06294552,0.02413981,-0.02343543,0.00578156,0.021
 76286,0.07150792,-0.03264919,-0.06007771,-0.00112789,-0.00555027,-0.00
 173181,0.00036886,0.00060994,-0.00080069,-0.05759828,0.00055343,0.0009
 8259,0.00145603,0.02246840,-0.03177334,0.02483783,-0.04032558,0.024408
 93,0.00116823,-0.00211448,-0.00175112,-0.00113205,-0.04989082,-0.00211
 711,0.03304189,-0.00120862,0.00080349,0.00176882,-0.00074407,-0.000451
 86,0.00096254,0.05103079,0.02079927,-0.00097051,0.00025014,0.00043412,
 -0.01620128,-0.00029399,0.02034551,-0.00960754,0.03174578,-0.04280773,
 0.01169791,-0.00135644,-0.00943103,-0.04035174,0.01440134,0.00306811,0
 .00075872,0.00251800,0.00103797,0.00042932,-0.00008798,0.00008853,0.04
 818592,-0.04551531,0.03860611,0.00162177,0.00162193,0.00148091,-0.0011
 9170,0.00278375,-0.00297912,0.00582302,-0.00597830,0.00140686,0.010767
 65,-0.01387366,0.01173657,-0.09012628,0.07176526,-0.09615144,0.0001767
 5,0.00107660,-0.00031920,-0.00209261,-0.00292422,0.00028334,-0.0142384
 3,0.01165457,-0.00358233,0.09189448,0.00124439,0.00345201,-0.00133038,
 0.00021252,-0.00065933,0.00082133,-0.00167038,0.00161770,-0.00077469,0
 .01382990,-0.01254114,0.01574037,0.06780541,-0.15627134,0.11927275,-0.
 00047708,-0.00025745,-0.00000224,-0.00318861,-0.00333339,0.00141209,0.
 00540792,-0.00493152,0.00251836,-0.07481835,0.16282479,0.00187843,-0.0
 0101221,0.00179654,0.00119757,-0.00275916,0.00339918,-0.00649488,0.006
 00295,-0.00043820,-0.00716730,0.00489292,-0.00475338,-0.08716084,0.112
 68730,-0.15591635,0.00000653,-0.00052163,0.00015294,0.00212008,0.00020
 251,0.00059332,0.01198317,-0.00850143,-0.00084866,0.09370822,-0.126911
 79,0.16693040,-0.00184249,-0.00520906,0.00058614,-0.00047228,0.0016316
 1,-0.00393538,0.00641903,-0.00580629,0.00198561,-0.00376007,-0.0032934
 9,-0.01606575,-0.07741650,-0.05707871,-0.09360058,0.00049075,0.0010040
 6,0.00019542,0.00027723,-0.00070245,0.00070012,-0.00738100,0.01044080,
 0.01309967,-0.00275401,-0.00699298,-0.00994490,0.08525041,-0.00504235,
 -0.00514191,-0.00043783,0.00008110,-0.00071032,0.00176022,-0.00184367,
 0.00236693,-0.00034613,-0.00467618,-0.00325315,-0.02162795,-0.06409642
 ,-0.11088482,-0.09774472,-0.00043562,0.00057149,0.00071163,0.00100902,
 0.00041985,0.00019679,0.00136967,-0.00442825,-0.00569239,0.00778030,0.
 01116338,0.01573141,0.06549199,0.11073750,0.00097336,0.00193354,0.0014
 6470,0.00058432,-0.00112241,0.00206085,-0.00220441,0.00326384,-0.00050
 214,0.00414689,0.00361408,0.00789071,-0.10463267,-0.09775185,-0.220181
 49,-0.00036393,-0.00081073,0.00021554,-0.00071409,-0.00032916,-0.00004
 687,0.00068653,-0.00584160,-0.00868003,-0.00529252,-0.01016527,-0.0109
 9323,0.10636247,0.10736223,0.22905172,-0.19611329,0.19347758,-0.152176
 44,0.00033338,-0.00045281,0.00076062,-0.00059524,0.00072712,-0.0003560
 5,-0.01286608,0.01313083,-0.00770863,-0.00044305,0.00176502,0.00119140
 ,0.00158174,-0.00029164,0.00108096,0.00013955,-0.00249985,-0.00252211,
 0.00045360,-0.00035887,-0.00054740,-0.00026527,-0.00130647,-0.00009462
 ,0.00102939,0.00006696,0.00040709,0.20685791,0.22282579,-0.26090236,0.
 15396311,0.00011498,-0.00033416,0.00052684,-0.00034703,0.00045706,-0.0
 0032906,-0.01572211,0.00973243,-0.01362880,-0.00174658,0.00263067,-0.0
 0231238,-0.00007790,-0.00011476,-0.00075698,-0.00216022,0.00003434,-0.
 00256503,0.00045719,-0.00014541,-0.00013981,0.00068649,-0.00096896,0.0
 0060752,0.00022395,-0.00059426,0.00026775,-0.20421136,0.25021599,-0.13
 498692,0.11453417,-0.11900150,-0.00000863,-0.00036099,0.00043744,-0.00
 025411,0.00057617,-0.00052367,-0.02475658,0.02429068,-0.02183458,0.000
 29732,-0.00055296,0.00279007,0.00038940,0.00139023,0.00038291,-0.00126
 801,-0.00375854,-0.00422117,0.00066149,-0.00040625,-0.00011187,-0.0006
 0136,-0.00045703,0.00052870,0.00057766,0.00030902,-0.00014874,0.160026
 28,-0.13557955,0.14174249,0.00043354,0.00031341,0.00052582,-0.26319861
 ,-0.16514597,-0.19335186,-0.00139890,0.00438169,-0.00177719,-0.0004072
 0,-0.00031479,-0.00040715,-0.00152357,-0.00065749,0.00025239,0.0000534
 2,0.00015052,0.00003544,-0.00024481,-0.00018495,-0.00012456,-0.0003349
 7,-0.00150554,-0.00291074,0.00038463,-0.00004627,-0.00003147,0.0001595
 3,0.00029520,0.00004696,-0.00011263,-0.00004320,-0.00007655,0.26618956
 ,-0.00014727,0.00001649,0.00000180,-0.19707089,-0.16012891,-0.13163643
 ,0.03070635,0.00493571,0.03317394,0.00066191,-0.00052911,-0.00053999,-
 0.00156242,0.00106171,0.00196404,0.00003511,0.00034107,0.00000833,-0.0
 0001068,0.00013329,-0.00016722,0.00416081,-0.00139567,0.00165229,0.000
 22562,-0.00009476,-0.00041839,0.00029057,-0.00024642,-0.00042042,-0.00
 004650,-0.00001058,0.00001506,0.16275739,0.15591718,-0.00010283,0.0000
 6011,-0.00006285,-0.17372958,-0.09850558,-0.14374145,-0.02704462,0.003
 09516,-0.02947434,0.00065713,-0.00069334,-0.00041719,-0.00149389,0.001
 45704,0.00232450,0.00014194,0.00026030,-0.00000841,-0.00026635,0.00019
 741,0.00024232,0.00373082,-0.00183869,-0.00170102,0.00031007,-0.000123
 51,-0.00045127,0.00003953,-0.00022229,-0.00013102,-0.00006111,-0.00005
 360,-0.00004008,0.19781890,0.09636699,0.17346081\\0.00000288,0.0000019
 1,-0.00000165,0.00000660,-0.00000385,-0.00000287,0.00001638,0.00000985
 ,0.00000771,-0.00000221,-0.00000025,0.00000137,0.00000240,0.00002423,0
 .00000780,0.00000265,0.00000137,0.00000257,-0.00000116,-0.00000096,-0.
 00000184,-0.00001894,-0.00002947,-0.00000905,0.00000026,-0.00000221,-0
 .00000429,-0.00000605,0.00000178,-0.00000283,-0.00000383,-0.00000272,0
 .00000311,0.00000103,0.00000034,-0.00000004\\\@


 A SCIENTIST IS SOMEONE WHOSE CURIOSITY SURVIVES
 EDUCATION'S ASSAULTS ON IT.
                          - SIR HERMANN BONDI
 Job cpu time:       0 days  1 hours 27 minutes 55.1 seconds.
 Elapsed time:       0 days  0 hours  4 minutes 24.5 seconds.
 File lengths (MBytes):  RWF=   1360 Int=      0 D2E=      0 Chk=     32 Scr=     32
 Normal termination of Gaussian 16 at Sat Jun 22 12:51:15 2019.
