 Entering Gaussian System, Link 0=g16
 Input=/scratch/harms.n//autotst-2.0-QMScratch/ts/CCO+[O]O_OO+[CH2]CO/conformers/CCO+[O]O_OO+[CH2]CO_reverse_shell_2.com
 Output=/scratch/harms.n//autotst-2.0-QMScratch/ts/CCO+[O]O_OO+[CH2]CO/conformers/CCO+[O]O_OO+[CH2]CO_reverse_shell_2.log
 Initial command:
 /shared/centos7/gaussian/g16/l1.exe "/scratch/harms.n/gauss_scrdir/Gau-36331.inp" -scrdir="/scratch/harms.n/gauss_scrdir/"
 Entering Link 1 = /shared/centos7/gaussian/g16/l1.exe PID=     36332.
  
 Copyright (c) 1988,1990,1992,1993,1995,1998,2003,2009,2016,
            Gaussian, Inc.  All Rights Reserved.
  
 This is part of the Gaussian(R) 16 program.  It is based on
 the Gaussian(R) 09 system (copyright 2009, Gaussian, Inc.),
 the Gaussian(R) 03 system (copyright 2003, Gaussian, Inc.),
 the Gaussian(R) 98 system (copyright 1998, Gaussian, Inc.),
 the Gaussian(R) 94 system (copyright 1995, Gaussian, Inc.),
 the Gaussian 92(TM) system (copyright 1992, Gaussian, Inc.),
 the Gaussian 90(TM) system (copyright 1990, Gaussian, Inc.),
 the Gaussian 88(TM) system (copyright 1988, Gaussian, Inc.),
 the Gaussian 86(TM) system (copyright 1986, Carnegie Mellon
 University), and the Gaussian 82(TM) system (copyright 1983,
 Carnegie Mellon University). Gaussian is a federally registered
 trademark of Gaussian, Inc.
  
 This software contains proprietary and confidential information,
 including trade secrets, belonging to Gaussian, Inc.
  
 This software is provided under written license and may be
 used, copied, transmitted, or stored only in accord with that
 written license.
  
 The following legend is applicable only to US Government
 contracts under FAR:
  
                    RESTRICTED RIGHTS LEGEND
  
 Use, reproduction and disclosure by the US Government is
 subject to restrictions as set forth in subparagraphs (a)
 and (c) of the Commercial Computer Software - Restricted
 Rights clause in FAR 52.227-19.
  
 Gaussian, Inc.
 340 Quinnipiac St., Bldg. 40, Wallingford CT 06492
  
  
 ---------------------------------------------------------------
 Warning -- This program may not be used in any manner that
 competes with the business of Gaussian, Inc. or will provide
 assistance to any competitor of Gaussian, Inc.  The licensee
 of this program is prohibited from giving any competitor of
 Gaussian, Inc. access to this program.  By using this program,
 the user acknowledges that Gaussian, Inc. is engaged in the
 business of creating and licensing software in the field of
 computational chemistry and represents and warrants to the
 licensee that it is not a competitor of Gaussian, Inc. and that
 it will not use this program in any manner prohibited above.
 ---------------------------------------------------------------
  

 Cite this work as:
 Gaussian 16, Revision A.03,
 M. J. Frisch, G. W. Trucks, H. B. Schlegel, G. E. Scuseria, 
 M. A. Robb, J. R. Cheeseman, G. Scalmani, V. Barone, 
 G. A. Petersson, H. Nakatsuji, X. Li, M. Caricato, A. V. Marenich, 
 J. Bloino, B. G. Janesko, R. Gomperts, B. Mennucci, H. P. Hratchian, 
 J. V. Ortiz, A. F. Izmaylov, J. L. Sonnenberg, D. Williams-Young, 
 F. Ding, F. Lipparini, F. Egidi, J. Goings, B. Peng, A. Petrone, 
 T. Henderson, D. Ranasinghe, V. G. Zakrzewski, J. Gao, N. Rega, 
 G. Zheng, W. Liang, M. Hada, M. Ehara, K. Toyota, R. Fukuda, 
 J. Hasegawa, M. Ishida, T. Nakajima, Y. Honda, O. Kitao, H. Nakai, 
 T. Vreven, K. Throssell, J. A. Montgomery, Jr., J. E. Peralta, 
 F. Ogliaro, M. J. Bearpark, J. J. Heyd, E. N. Brothers, K. N. Kudin, 
 V. N. Staroverov, T. A. Keith, R. Kobayashi, J. Normand, 
 K. Raghavachari, A. P. Rendell, J. C. Burant, S. S. Iyengar, 
 J. Tomasi, M. Cossi, J. M. Millam, M. Klene, C. Adamo, R. Cammi, 
 J. W. Ochterski, R. L. Martin, K. Morokuma, O. Farkas, 
 J. B. Foresman, and D. J. Fox, Gaussian, Inc., Wallingford CT, 2016.
 
 ******************************************
 Gaussian 16:  EM64L-G16RevA.03 25-Dec-2016
                22-Jun-2019 
 ******************************************
 %nprocshared=20
 Will use up to   20 processors via shared memory.
 %mem=5GB
 ----------------------------------------------------------------------
 #p m062x/cc-pVTZ Opt=(ModRedun,Loose,maxcycles=900) Int(Grid=SG1) scf=
 (maxcycle=900)
 ----------------------------------------------------------------------
 1/6=900,7=-1,18=120,19=15,26=2,38=1/1,3;
 2/9=110,12=2,17=6,18=5,40=1/2;
 3/5=16,6=1,11=2,25=1,30=1,71=1,74=-55,75=1/1,2,3;
 4//1;
 5/5=2,7=900,38=5/2;
 6/7=2,8=2,9=2,10=2,28=1/1;
 7//1,2,3,16;
 1/6=900,7=-1,18=20,19=15,26=2/3(2);
 2/9=110/2;
 99//99;
 2/9=110/2;
 3/5=16,6=1,11=2,25=1,30=1,71=1,74=-55,75=1/1,2,3;
 4/5=5,16=3,69=1/1;
 5/5=2,7=900,38=5/2;
 7//1,2,3,16;
 1/6=900,7=-1,18=20,19=15,26=2/3(-5);
 2/9=110/2;
 6/7=2,8=2,9=2,10=2,19=2,28=1/1;
 99/9=1/99;
 Leave Link    1 at Sat Jun 22 12:33:53 2019, MaxMem=   671088640 cpu:              13.8 elap:               0.7
 (Enter /shared/centos7/gaussian/g16/l101.exe)
 ------------------------------
 Gaussian input prepared by ASE
 ------------------------------
 Symbolic Z-matrix:
 Charge =  0 Multiplicity = 2
 O                    -3.44906   2.75415   6.77936 
 O                    -2.50826   3.11909   3.20081 
 O                    -1.81972   1.99759   3.22619 
 C                    -3.82353   2.03687   5.6351 
 C                    -2.80453   0.99215   5.2034 
 H                    -3.9643    2.7812    4.82396 
 H                    -4.81046   1.54699   5.79376 
 H                    -2.2534    0.58525   6.07762 
 H                    -3.29297   0.14398   4.67867 
 H                    -3.13605   2.08661   7.44424 
 H                    -1.90374   3.77193   3.63611 
 H                    -2.04822   1.45368   4.45843 
 
 Add virtual bond connecting atoms H12        and O3         Dist= 2.58D+00.
 The following ModRedundant input section has been read:
 B       3      12 F                                                           
 B       5      12 F                                                           
 A       3      12       5 F                                                   
 
 ITRead=  0  0  0  0  0  0  0  0  0  0  0  0
 MicOpt= -1 -1 -1 -1 -1 -1 -1 -1 -1 -1 -1 -1
 NAtoms=     12 NQM=       12 NQMF=       0 NMMI=      0 NMMIF=      0
                NMic=       0 NMicF=      0.
                    Isotopes and Nuclear Properties:
 (Nuclear quadrupole moments (NQMom) in fm**2, nuclear magnetic moments (NMagM)
  in nuclear magnetons)

  Atom         1           2           3           4           5           6           7           8           9          10
 IAtWgt=          16          16          16          12          12           1           1           1           1           1
 AtmWgt=  15.9949146  15.9949146  15.9949146  12.0000000  12.0000000   1.0078250   1.0078250   1.0078250   1.0078250   1.0078250
 NucSpn=           0           0           0           0           0           1           1           1           1           1
 AtZEff=  -0.0000000  -0.0000000  -0.0000000  -0.0000000  -0.0000000  -0.0000000  -0.0000000  -0.0000000  -0.0000000  -0.0000000
 NQMom=    0.0000000   0.0000000   0.0000000   0.0000000   0.0000000   0.0000000   0.0000000   0.0000000   0.0000000   0.0000000
 NMagM=    0.0000000   0.0000000   0.0000000   0.0000000   0.0000000   2.7928460   2.7928460   2.7928460   2.7928460   2.7928460
 AtZNuc=   8.0000000   8.0000000   8.0000000   6.0000000   6.0000000   1.0000000   1.0000000   1.0000000   1.0000000   1.0000000

  Atom        11          12
 IAtWgt=           1           1
 AtmWgt=   1.0078250   1.0078250
 NucSpn=           1           1
 AtZEff=  -0.0000000  -0.0000000
 NQMom=    0.0000000   0.0000000
 NMagM=    2.7928460   2.7928460
 AtZNuc=   1.0000000   1.0000000
 Leave Link  101 at Sat Jun 22 12:33:53 2019, MaxMem=   671088640 cpu:               4.6 elap:               0.3
 (Enter /shared/centos7/gaussian/g16/l103.exe)

 GradGradGradGradGradGradGradGradGradGradGradGradGradGradGradGradGradGrad
 Berny optimization.
 Initialization pass.
                           ----------------------------
                           !    Initial Parameters    !
                           ! (Angstroms and Degrees)  !
 --------------------------                            --------------------------
 ! Name  Definition              Value          Derivative Info.                !
 --------------------------------------------------------------------------------
 ! R1    R(1,4)                  1.4014         estimate D2E/DX2                !
 ! R2    R(1,10)                 0.9928         estimate D2E/DX2                !
 ! R3    R(2,3)                  1.3162         estimate D2E/DX2                !
 ! R4    R(2,11)                 0.9905         estimate D2E/DX2                !
 ! R5    R(3,12)                 1.3662         Frozen                          !
 ! R6    R(4,5)                  1.5219         estimate D2E/DX2                !
 ! R7    R(4,6)                  1.1099         estimate D2E/DX2                !
 ! R8    R(4,7)                  1.1132         estimate D2E/DX2                !
 ! R9    R(5,8)                  1.1107         estimate D2E/DX2                !
 ! R10   R(5,9)                  1.1105         estimate D2E/DX2                !
 ! R11   R(5,12)                 1.1576         Frozen                          !
 ! A1    A(4,1,10)             106.6724         estimate D2E/DX2                !
 ! A2    A(3,2,11)             103.5232         estimate D2E/DX2                !
 ! A3    A(2,3,12)             105.6118         estimate D2E/DX2                !
 ! A4    A(1,4,5)              113.8312         estimate D2E/DX2                !
 ! A5    A(1,4,6)              106.7003         estimate D2E/DX2                !
 ! A6    A(1,4,7)              110.228          estimate D2E/DX2                !
 ! A7    A(5,4,6)              109.7542         estimate D2E/DX2                !
 ! A8    A(5,4,7)              109.3877         estimate D2E/DX2                !
 ! A9    A(6,4,7)              106.6692         estimate D2E/DX2                !
 ! A10   A(4,5,8)              111.1288         estimate D2E/DX2                !
 ! A11   A(4,5,9)              111.3353         estimate D2E/DX2                !
 ! A12   A(4,5,12)             110.2621         estimate D2E/DX2                !
 ! A13   A(8,5,9)              108.0808         estimate D2E/DX2                !
 ! A14   A(8,5,12)             109.1724         estimate D2E/DX2                !
 ! A15   A(9,5,12)             106.7251         estimate D2E/DX2                !
 ! A16   A(3,12,5)             148.0456         Frozen                          !
 ! D1    D(10,1,4,5)           -46.9114         estimate D2E/DX2                !
 ! D2    D(10,1,4,6)          -168.1283         estimate D2E/DX2                !
 ! D3    D(10,1,4,7)            76.4223         estimate D2E/DX2                !
 ! D4    D(11,2,3,12)           84.1871         estimate D2E/DX2                !
 ! D5    D(2,3,12,5)            64.6807         estimate D2E/DX2                !
 ! D6    D(1,4,5,8)             30.7361         estimate D2E/DX2                !
 ! D7    D(1,4,5,9)            151.2768         estimate D2E/DX2                !
 ! D8    D(1,4,5,12)           -90.4599         estimate D2E/DX2                !
 ! D9    D(6,4,5,8)            150.2357         estimate D2E/DX2                !
 ! D10   D(6,4,5,9)            -89.2236         estimate D2E/DX2                !
 ! D11   D(6,4,5,12)            29.0397         estimate D2E/DX2                !
 ! D12   D(7,4,5,8)            -93.0537         estimate D2E/DX2                !
 ! D13   D(7,4,5,9)             27.487          estimate D2E/DX2                !
 ! D14   D(7,4,5,12)           145.7503         estimate D2E/DX2                !
 ! D15   D(4,5,12,3)           -66.3342         estimate D2E/DX2                !
 ! D16   D(8,5,12,3)           171.3108         estimate D2E/DX2                !
 ! D17   D(9,5,12,3)            54.7224         estimate D2E/DX2                !
 --------------------------------------------------------------------------------
 Trust Radius=3.00D-01 FncErr=1.00D-05 GrdErr=1.00D-04 EigMax=2.50D+02 EigMin=1.00D-04
 Number of steps in this run=    100 maximum allowed number of steps=    100.
 GradGradGradGradGradGradGradGradGradGradGradGradGradGradGradGradGradGrad

 Leave Link  103 at Sat Jun 22 12:33:53 2019, MaxMem=   671088640 cpu:               0.3 elap:               0.0
 (Enter /shared/centos7/gaussian/g16/l202.exe)
                          Input orientation:                          
 ---------------------------------------------------------------------
 Center     Atomic      Atomic             Coordinates (Angstroms)
 Number     Number       Type             X           Y           Z
 ---------------------------------------------------------------------
      1          8           0       -3.449062    2.754155    6.779364
      2          8           0       -2.508264    3.119088    3.200809
      3          8           0       -1.819723    1.997586    3.226194
      4          6           0       -3.823528    2.036867    5.635103
      5          6           0       -2.804533    0.992150    5.203401
      6          1           0       -3.964301    2.781198    4.823960
      7          1           0       -4.810462    1.546988    5.793765
      8          1           0       -2.253395    0.585249    6.077619
      9          1           0       -3.292970    0.143982    4.678665
     10          1           0       -3.136053    2.086608    7.444240
     11          1           0       -1.903741    3.771928    3.636113
     12          1           0       -2.048225    1.453682    4.458430
 ---------------------------------------------------------------------
                    Distance matrix (angstroms):
                    1          2          3          4          5
     1  O    0.000000
     2  O    3.718108   0.000000
     3  O    3.981477   1.316245   0.000000
     4  C    1.401449   2.971012   3.133627   0.000000
     5  C    2.450253   2.936327   2.426952   1.521891   0.000000
     6  H    2.022327   2.206543   2.786776   1.109865   2.165579
     7  H    2.069316   3.807235   3.967364   1.113191   2.163360
     8  H    2.574144   3.842048   3.211447   2.183651   1.110666
     9  H    3.354146   3.413368   2.777764   2.186155   1.110543
    10  H    0.992801   4.412124   4.419566   1.935993   2.515771
    11  H    3.647452   0.990523   1.823015   3.269859   3.315868
    12  H    3.006710   2.137013   1.366181   2.208249   1.157581
                    6          7          8          9         10
     6  H    0.000000
     7  H    1.783195   0.000000
     8  H    3.053040   2.746653   0.000000
     9  H    2.725198   2.348330   1.797916   0.000000
    10  H    2.834487   2.412240   2.213779   3.383315   0.000000
    11  H    2.576516   4.249100   4.029657   4.022295   4.342894
    12  H    2.359504   3.069492   1.848795   1.820222   3.240220
                   11         12
    11  H    0.000000
    12  H    2.464010   0.000000
 Stoichiometry    C2H7O3(2)
 Framework group  C1[X(C2H7O3)]
 Deg. of freedom    30
 Full point group                 C1      NOp   1
 Largest Abelian subgroup         C1      NOp   1
 Largest concise Abelian subgroup C1      NOp   1
                         Standard orientation:                         
 ---------------------------------------------------------------------
 Center     Atomic      Atomic             Coordinates (Angstroms)
 Number     Number       Type             X           Y           Z
 ---------------------------------------------------------------------
      1          8           0       -1.947992   -0.733431   -0.384221
      2          8           0        1.723641   -0.812429    0.196462
      3          8           0        1.860596    0.419030   -0.247670
      4          6           0       -1.132212   -0.069780    0.542132
      5          6           0       -0.438613    1.162252   -0.021044
      6          1           0       -0.373416   -0.804590    0.882844
      7          1           0       -1.724249    0.217472    1.440002
      8          1           0       -1.054717    1.642843   -0.810364
      9          1           0       -0.245860    1.915365    0.772034
     10          1           0       -2.496501   -0.036932   -0.831078
     11          1           0        1.638581   -1.349203   -0.631652
     12          1           0        0.591147    0.874850   -0.464879
 ---------------------------------------------------------------------
 Rotational constants (GHZ):           8.3237543           2.4318260           2.0825719
 Leave Link  202 at Sat Jun 22 12:33:53 2019, MaxMem=   671088640 cpu:               0.2 elap:               0.0
 (Enter /shared/centos7/gaussian/g16/l301.exe)
 Standard basis: CC-pVTZ (5D, 7F)
 Ernie: Thresh=  0.10000D-02 Tol=  0.10000D-05 Strict=F.
 Ernie:  15 primitive shells out of 186 were deleted.
 There are   280 symmetry adapted cartesian basis functions of A   symmetry.
 There are   248 symmetry adapted basis functions of A   symmetry.
   248 basis functions,   379 primitive gaussians,   280 cartesian basis functions
    22 alpha electrons       21 beta electrons
       nuclear repulsion energy       188.9250014341 Hartrees.
 IExCor= 4336 DFT=T Ex+Corr=M062X ExCW=0 ScaHFX=  0.540000
 ScaDFX=  1.000000  1.000000  1.000000  1.000000 ScalE2=  1.000000  1.000000
 IRadAn=      1 IRanWt=     -1 IRanGd=            0 ICorTp=0 IEmpDi=  4
 NAtoms=   12 NActive=   12 NUniq=   12 SFac= 1.00D+00 NAtFMM=   60 NAOKFM=F Big=F
 Integral buffers will be    131072 words long.
 Raffenetti 2 integral format.
 Two-electron integral symmetry is turned on.
 Leave Link  301 at Sat Jun 22 12:33:53 2019, MaxMem=   671088640 cpu:               1.3 elap:               0.1
 (Enter /shared/centos7/gaussian/g16/l302.exe)
 NPDir=0 NMtPBC=     1 NCelOv=     1 NCel=       1 NClECP=     1 NCelD=      1
         NCelK=      1 NCelE2=     1 NClLst=     1 CellRange=     0.0.
 One-electron integrals computed using PRISM.
 One-electron integral symmetry used in STVInt
 NBasis=   248 RedAO= T EigKep=  8.68D-04  NBF=   248
 NBsUse=   248 1.00D-06 EigRej= -1.00D+00 NBFU=   248
 Precomputing XC quadrature grid using
 IXCGrd= 4 IRadAn=           1 IRanWt=          -1 IRanGd=           0 AccXCQ= 0.00D+00.
 Generated NRdTot=       0 NPtTot=           0 NUsed=           0 NTot=          32
 NSgBfM=   280   280   280   280   280 MxSgAt=    12 MxSgA2=    12.
 Leave Link  302 at Sat Jun 22 12:33:54 2019, MaxMem=   671088640 cpu:               5.1 elap:               0.3
 (Enter /shared/centos7/gaussian/g16/l303.exe)
 DipDrv:  MaxL=1.
 Leave Link  303 at Sat Jun 22 12:33:54 2019, MaxMem=   671088640 cpu:               0.7 elap:               0.1
 (Enter /shared/centos7/gaussian/g16/l401.exe)
 ExpMin= 1.03D-01 ExpMax= 1.53D+04 ExpMxC= 5.22D+02 IAcc=1 IRadAn=         1 AccDes= 0.00D+00
 Harris functional with IExCor= 1009 and IRadAn=       1 diagonalized for initial guess.
 HarFok:  IExCor= 1009 AccDes= 0.00D+00 IRadAn=         1 IDoV= 1 UseB2=F ITyADJ=14
 ICtDFT=  3500011 ScaDFX=  1.000000  1.000000  1.000000  1.000000
 FoFCou: FMM=F IPFlag=           0 FMFlag=      100000 FMFlg1=           0
         NFxFlg=           0 DoJE=T BraDBF=F KetDBF=T FulRan=T
         wScrn=  0.000000 ICntrl=       500 IOpCl=  0 I1Cent=   200000004 NGrid=           0
         NMat0=    1 NMatS0=      1 NMatT0=    0 NMatD0=    1 NMtDS0=    0 NMtDT0=    0
 Petite list used in FoFCou.
 Harris En= -305.784421491415    
 JPrj=0 DoOrth=F DoCkMO=F.
 Initial guess <Sx>= 0.0000 <Sy>= 0.0000 <Sz>= 0.5000 <S**2>= 0.7500 S= 0.5000
 Leave Link  401 at Sat Jun 22 12:33:54 2019, MaxMem=   671088640 cpu:               7.0 elap:               0.4
 (Enter /shared/centos7/gaussian/g16/l502.exe)
 Integral symmetry usage will be decided dynamically.
 UHF open shell SCF:
 Using DIIS extrapolation, IDIIS=  1040.
 NGot=   671088640 LenX=   670923676 LenY=   670844835
 Requested convergence on RMS density matrix=1.00D-08 within 900 cycles.
 Requested convergence on MAX density matrix=1.00D-06.
 Requested convergence on             energy=1.00D-06.
 No special actions if energy rises.
 Fock matrices will be formed incrementally for  20 cycles.

 Cycle   1  Pass 1  IDiag  1:
 FoFJK:  IHMeth= 1 ICntrl=       0 DoSepK=F KAlg= 0 I1Cent=           0 FoldK=F
 IRaf= 970000000 NMat=       1 IRICut=       1 DoRegI=T DoRafI=F ISym2E= 0 IDoP0=0 IntGTp=1.
 FoFCou: FMM=F IPFlag=           0 FMFlag=      100000 FMFlg1=           0
         NFxFlg=           0 DoJE=F BraDBF=F KetDBF=F FulRan=T
         wScrn=  0.000000 ICntrl=         0 IOpCl=  1 I1Cent=           0 NGrid=           0
         NMat0=    1 NMatS0=      1 NMatT0=    0 NMatD0=    1 NMtDS0=    0 NMtDT0=    0
 Symmetry not used in FoFCou.
 E= -305.733888465116    
 DIIS: error= 1.98D-02 at cycle   1 NSaved=   1.
 NSaved= 1 IEnMin= 1 EnMin= -305.733888465116     IErMin= 1 ErrMin= 1.98D-02
 ErrMax= 1.98D-02  0.00D+00 EMaxC= 1.00D-01 BMatC= 8.59D-01 BMatP= 8.59D-01
 IDIUse=3 WtCom= 8.02D-01 WtEn= 1.98D-01
 Coeff-Com:  0.100D+01
 Coeff-En:   0.100D+01
 Coeff:      0.100D+01
 Gap=     0.404 Goal=   None    Shift=    0.000
 Gap=     0.306 Goal=   None    Shift=    0.000
 GapD=    0.306 DampG=1.000 DampE=0.500 DampFc=0.5000 IDamp=-1.
 Damping current iteration by 5.00D-01
 RMSDP=2.28D-03 MaxDP=1.09D-01              OVMax= 2.19D-01

 Cycle   2  Pass 1  IDiag  1:
 RMSU=  1.14D-03    CP:  1.00D+00
 E= -305.814279200688     Delta-E=       -0.080390735572 Rises=F Damp=T
 DIIS: error= 5.76D-03 at cycle   2 NSaved=   2.
 NSaved= 2 IEnMin= 2 EnMin= -305.814279200688     IErMin= 2 ErrMin= 5.76D-03
 ErrMax= 5.76D-03  0.00D+00 EMaxC= 1.00D-01 BMatC= 7.84D-02 BMatP= 8.59D-01
 IDIUse=3 WtCom= 9.42D-01 WtEn= 5.76D-02
 Coeff-Com: -0.844D-01 0.108D+01
 Coeff-En:   0.000D+00 0.100D+01
 Coeff:     -0.796D-01 0.108D+01
 Gap=     0.381 Goal=   None    Shift=    0.000
 Gap=     0.279 Goal=   None    Shift=    0.000
 RMSDP=4.85D-04 MaxDP=1.49D-02 DE=-8.04D-02 OVMax= 1.01D-01

 Cycle   3  Pass 1  IDiag  1:
 RMSU=  4.74D-04    CP:  1.00D+00  9.25D-01
 E= -305.893276409294     Delta-E=       -0.078997208606 Rises=F Damp=F
 DIIS: error= 2.62D-03 at cycle   3 NSaved=   3.
 NSaved= 3 IEnMin= 3 EnMin= -305.893276409294     IErMin= 3 ErrMin= 2.62D-03
 ErrMax= 2.62D-03  0.00D+00 EMaxC= 1.00D-01 BMatC= 1.91D-02 BMatP= 7.84D-02
 IDIUse=3 WtCom= 9.74D-01 WtEn= 2.62D-02
 Coeff-Com: -0.864D-01 0.342D+00 0.745D+00
 Coeff-En:   0.000D+00 0.000D+00 0.100D+01
 Coeff:     -0.841D-01 0.333D+00 0.751D+00
 Gap=     0.364 Goal=   None    Shift=    0.000
 Gap=     0.261 Goal=   None    Shift=    0.000
 RMSDP=2.00D-04 MaxDP=9.75D-03 DE=-7.90D-02 OVMax= 2.92D-02

 Cycle   4  Pass 1  IDiag  1:
 RMSU=  1.68D-04    CP:  1.00D+00  9.95D-01  8.45D-01
 E= -305.896127074596     Delta-E=       -0.002850665302 Rises=F Damp=F
 DIIS: error= 1.85D-03 at cycle   4 NSaved=   4.
 NSaved= 4 IEnMin= 4 EnMin= -305.896127074596     IErMin= 4 ErrMin= 1.85D-03
 ErrMax= 1.85D-03  0.00D+00 EMaxC= 1.00D-01 BMatC= 5.59D-03 BMatP= 1.91D-02
 IDIUse=3 WtCom= 9.82D-01 WtEn= 1.85D-02
 Coeff-Com: -0.331D-01 0.794D-01 0.389D+00 0.565D+00
 Coeff-En:   0.000D+00 0.000D+00 0.738D-01 0.926D+00
 Coeff:     -0.325D-01 0.779D-01 0.383D+00 0.572D+00
 Gap=     0.363 Goal=   None    Shift=    0.000
 Gap=     0.263 Goal=   None    Shift=    0.000
 RMSDP=7.88D-05 MaxDP=3.75D-03 DE=-2.85D-03 OVMax= 8.14D-03

 Cycle   5  Pass 1  IDiag  1:
 RMSU=  6.44D-05    CP:  1.00D+00  9.96D-01  9.10D-01  8.03D-01
 E= -305.897044138355     Delta-E=       -0.000917063759 Rises=F Damp=F
 DIIS: error= 4.98D-04 at cycle   5 NSaved=   5.
 NSaved= 5 IEnMin= 5 EnMin= -305.897044138355     IErMin= 5 ErrMin= 4.98D-04
 ErrMax= 4.98D-04  0.00D+00 EMaxC= 1.00D-01 BMatC= 3.83D-04 BMatP= 5.59D-03
 IDIUse=3 WtCom= 9.95D-01 WtEn= 4.98D-03
 Coeff-Com: -0.398D-02-0.141D-03 0.891D-01 0.215D+00 0.700D+00
 Coeff-En:   0.000D+00 0.000D+00 0.000D+00 0.000D+00 0.100D+01
 Coeff:     -0.396D-02-0.140D-03 0.886D-01 0.214D+00 0.702D+00
 Gap=     0.363 Goal=   None    Shift=    0.000
 Gap=     0.267 Goal=   None    Shift=    0.000
 RMSDP=3.38D-05 MaxDP=2.24D-03 DE=-9.17D-04 OVMax= 6.83D-03

 Cycle   6  Pass 1  IDiag  1:
 RMSU=  2.88D-05    CP:  1.00D+00  9.93D-01  9.34D-01  8.78D-01  9.81D-01
 E= -305.897175190022     Delta-E=       -0.000131051667 Rises=F Damp=F
 DIIS: error= 3.71D-04 at cycle   6 NSaved=   6.
 NSaved= 6 IEnMin= 6 EnMin= -305.897175190022     IErMin= 6 ErrMin= 3.71D-04
 ErrMax= 3.71D-04  0.00D+00 EMaxC= 1.00D-01 BMatC= 1.58D-04 BMatP= 3.83D-04
 IDIUse=3 WtCom= 9.96D-01 WtEn= 3.71D-03
 Coeff-Com:  0.774D-02-0.226D-01-0.635D-01-0.948D-01 0.316D+00 0.857D+00
 Coeff-En:   0.000D+00 0.000D+00 0.000D+00 0.000D+00 0.000D+00 0.100D+01
 Coeff:      0.772D-02-0.225D-01-0.633D-01-0.945D-01 0.315D+00 0.858D+00
 Gap=     0.364 Goal=   None    Shift=    0.000
 Gap=     0.267 Goal=   None    Shift=    0.000
 RMSDP=2.94D-05 MaxDP=1.75D-03 DE=-1.31D-04 OVMax= 3.88D-03

 Cycle   7  Pass 1  IDiag  1:
 RMSU=  1.29D-05    CP:  1.00D+00  9.91D-01  9.43D-01  9.60D-01  1.31D+00
                    CP:  1.17D+00
 E= -305.897241064166     Delta-E=       -0.000065874145 Rises=F Damp=F
 DIIS: error= 1.22D-04 at cycle   7 NSaved=   7.
 NSaved= 7 IEnMin= 7 EnMin= -305.897241064166     IErMin= 7 ErrMin= 1.22D-04
 ErrMax= 1.22D-04  0.00D+00 EMaxC= 1.00D-01 BMatC= 2.00D-05 BMatP= 1.58D-04
 IDIUse=3 WtCom= 9.99D-01 WtEn= 1.22D-03
 Coeff-Com:  0.348D-02-0.588D-02-0.405D-01-0.104D+00-0.753D-01 0.225D+00
 Coeff-Com:  0.997D+00
 Coeff-En:   0.000D+00 0.000D+00 0.000D+00 0.000D+00 0.000D+00 0.000D+00
 Coeff-En:   0.100D+01
 Coeff:      0.347D-02-0.588D-02-0.404D-01-0.104D+00-0.752D-01 0.225D+00
 Coeff:      0.997D+00
 Gap=     0.365 Goal=   None    Shift=    0.000
 Gap=     0.268 Goal=   None    Shift=    0.000
 RMSDP=1.73D-05 MaxDP=1.01D-03 DE=-6.59D-05 OVMax= 3.17D-03

 Cycle   8  Pass 1  IDiag  1:
 RMSU=  6.22D-06    CP:  1.00D+00  9.91D-01  9.49D-01  9.94D-01  1.48D+00
                    CP:  1.50D+00  1.31D+00
 E= -305.897258557373     Delta-E=       -0.000017493207 Rises=F Damp=F
 DIIS: error= 4.42D-05 at cycle   8 NSaved=   8.
 NSaved= 8 IEnMin= 8 EnMin= -305.897258557373     IErMin= 8 ErrMin= 4.42D-05
 ErrMax= 4.42D-05  0.00D+00 EMaxC= 1.00D-01 BMatC= 3.35D-06 BMatP= 2.00D-05
 IDIUse=1 WtCom= 1.00D+00 WtEn= 0.00D+00
 Coeff-Com: -0.273D-03 0.165D-02 0.126D-02-0.114D-01-0.451D-01-0.674D-01
 Coeff-Com:  0.200D+00 0.921D+00
 Coeff:     -0.273D-03 0.165D-02 0.126D-02-0.114D-01-0.451D-01-0.674D-01
 Coeff:      0.200D+00 0.921D+00
 Gap=     0.365 Goal=   None    Shift=    0.000
 Gap=     0.268 Goal=   None    Shift=    0.000
 RMSDP=6.13D-06 MaxDP=2.81D-04 DE=-1.75D-05 OVMax= 1.34D-03

 Cycle   9  Pass 1  IDiag  1:
 RMSU=  3.09D-06    CP:  1.00D+00  9.91D-01  9.51D-01  1.00D+00  1.51D+00
                    CP:  1.60D+00  1.54D+00  1.38D+00
 E= -305.897260989262     Delta-E=       -0.000002431889 Rises=F Damp=F
 DIIS: error= 3.41D-05 at cycle   9 NSaved=   9.
 NSaved= 9 IEnMin= 9 EnMin= -305.897260989262     IErMin= 9 ErrMin= 3.41D-05
 ErrMax= 3.41D-05  0.00D+00 EMaxC= 1.00D-01 BMatC= 1.18D-06 BMatP= 3.35D-06
 IDIUse=1 WtCom= 1.00D+00 WtEn= 0.00D+00
 Coeff-Com: -0.106D-02 0.224D-02 0.135D-01 0.269D-01 0.558D-02-0.105D+00
 Coeff-Com: -0.222D+00 0.424D+00 0.856D+00
 Coeff:     -0.106D-02 0.224D-02 0.135D-01 0.269D-01 0.558D-02-0.105D+00
 Coeff:     -0.222D+00 0.424D+00 0.856D+00
 Gap=     0.365 Goal=   None    Shift=    0.000
 Gap=     0.268 Goal=   None    Shift=    0.000
 RMSDP=4.20D-06 MaxDP=2.09D-04 DE=-2.43D-06 OVMax= 1.21D-03

 Cycle  10  Pass 1  IDiag  1:
 RMSU=  1.78D-06    CP:  1.00D+00  9.91D-01  9.51D-01  1.00D+00  1.53D+00
                    CP:  1.65D+00  1.68D+00  1.79D+00  1.23D+00
 E= -305.897261990714     Delta-E=       -0.000001001452 Rises=F Damp=F
 DIIS: error= 1.81D-05 at cycle  10 NSaved=  10.
 NSaved=10 IEnMin=10 EnMin= -305.897261990714     IErMin=10 ErrMin= 1.81D-05
 ErrMax= 1.81D-05  0.00D+00 EMaxC= 1.00D-01 BMatC= 1.84D-07 BMatP= 1.18D-06
 IDIUse=1 WtCom= 1.00D+00 WtEn= 0.00D+00
 Coeff-Com:  0.882D-04-0.275D-03 0.128D-03 0.153D-02 0.557D-02 0.105D-01
 Coeff-Com: -0.317D-01-0.155D+00 0.609D-01 0.111D+01
 Coeff:      0.882D-04-0.275D-03 0.128D-03 0.153D-02 0.557D-02 0.105D-01
 Coeff:     -0.317D-01-0.155D+00 0.609D-01 0.111D+01
 Gap=     0.365 Goal=   None    Shift=    0.000
 Gap=     0.268 Goal=   None    Shift=    0.000
 RMSDP=2.53D-06 MaxDP=1.49D-04 DE=-1.00D-06 OVMax= 8.90D-04

 Cycle  11  Pass 1  IDiag  1:
 RMSU=  8.39D-07    CP:  1.00D+00  9.91D-01  9.51D-01  1.01D+00  1.54D+00
                    CP:  1.67D+00  1.74D+00  2.00D+00  1.63D+00  1.66D+00
 E= -305.897262341570     Delta-E=       -0.000000350856 Rises=F Damp=F
 DIIS: error= 1.30D-05 at cycle  11 NSaved=  11.
 NSaved=11 IEnMin=11 EnMin= -305.897262341570     IErMin=11 ErrMin= 1.30D-05
 ErrMax= 1.30D-05  0.00D+00 EMaxC= 1.00D-01 BMatC= 7.12D-08 BMatP= 1.84D-07
 IDIUse=1 WtCom= 1.00D+00 WtEn= 0.00D+00
 Coeff-Com:  0.318D-03-0.673D-03-0.385D-02-0.766D-02-0.238D-02 0.333D-01
 Coeff-Com:  0.627D-01-0.131D+00-0.230D+00-0.477D-01 0.133D+01
 Coeff:      0.318D-03-0.673D-03-0.385D-02-0.766D-02-0.238D-02 0.333D-01
 Coeff:      0.627D-01-0.131D+00-0.230D+00-0.477D-01 0.133D+01
 Gap=     0.365 Goal=   None    Shift=    0.000
 Gap=     0.268 Goal=   None    Shift=    0.000
 RMSDP=2.32D-06 MaxDP=1.47D-04 DE=-3.51D-07 OVMax= 8.64D-04

 Cycle  12  Pass 1  IDiag  1:
 RMSU=  4.37D-07    CP:  1.00D+00  9.91D-01  9.51D-01  1.01D+00  1.54D+00
                    CP:  1.68D+00  1.78D+00  2.15D+00  1.96D+00  2.49D+00
                    CP:  1.96D+00
 E= -305.897262558303     Delta-E=       -0.000000216733 Rises=F Damp=F
 DIIS: error= 8.37D-06 at cycle  12 NSaved=  12.
 NSaved=12 IEnMin=12 EnMin= -305.897262558303     IErMin=12 ErrMin= 8.37D-06
 ErrMax= 8.37D-06  0.00D+00 EMaxC= 1.00D-01 BMatC= 3.04D-08 BMatP= 7.12D-08
 IDIUse=1 WtCom= 1.00D+00 WtEn= 0.00D+00
 Coeff-Com:  0.824D-06 0.317D-04-0.768D-03-0.173D-02-0.302D-02 0.173D-02
 Coeff-Com:  0.205D-01 0.476D-01-0.600D-01-0.469D+00 0.934D-01 0.137D+01
 Coeff:      0.824D-06 0.317D-04-0.768D-03-0.173D-02-0.302D-02 0.173D-02
 Coeff:      0.205D-01 0.476D-01-0.600D-01-0.469D+00 0.934D-01 0.137D+01
 Gap=     0.365 Goal=   None    Shift=    0.000
 Gap=     0.268 Goal=   None    Shift=    0.000
 RMSDP=2.10D-06 MaxDP=1.35D-04 DE=-2.17D-07 OVMax= 7.92D-04

 Cycle  13  Pass 1  IDiag  1:
 RMSU=  4.58D-07    CP:  1.00D+00  9.91D-01  9.52D-01  1.01D+00  1.54D+00
                    CP:  1.69D+00  1.81D+00  2.27D+00  2.24D+00  3.00D+00
                    CP:  3.00D+00  2.04D+00
 E= -305.897262669790     Delta-E=       -0.000000111487 Rises=F Damp=F
 DIIS: error= 3.71D-06 at cycle  13 NSaved=  13.
 NSaved=13 IEnMin=13 EnMin= -305.897262669790     IErMin=13 ErrMin= 3.71D-06
 ErrMax= 3.71D-06  0.00D+00 EMaxC= 1.00D-01 BMatC= 9.74D-09 BMatP= 3.04D-08
 IDIUse=1 WtCom= 1.00D+00 WtEn= 0.00D+00
 Coeff-Com: -0.164D-03 0.358D-03 0.160D-02 0.324D-02 0.287D-03-0.154D-01
 Coeff-Com: -0.247D-01 0.816D-01 0.849D-01-0.956D-01-0.603D+00 0.408D+00
 Coeff-Com:  0.116D+01
 Coeff:     -0.164D-03 0.358D-03 0.160D-02 0.324D-02 0.287D-03-0.154D-01
 Coeff:     -0.247D-01 0.816D-01 0.849D-01-0.956D-01-0.603D+00 0.408D+00
 Coeff:      0.116D+01
 Gap=     0.365 Goal=   None    Shift=    0.000
 Gap=     0.268 Goal=   None    Shift=    0.000
 RMSDP=1.31D-06 MaxDP=8.37D-05 DE=-1.11D-07 OVMax= 4.89D-04

 Cycle  14  Pass 1  IDiag  1:
 RMSU=  6.10D-07    CP:  1.00D+00  9.91D-01  9.52D-01  1.01D+00  1.55D+00
                    CP:  1.70D+00  1.83D+00  2.33D+00  2.38D+00  3.00D+00
                    CP:  3.00D+00  3.00D+00  2.79D+00
 E= -305.897262698728     Delta-E=       -0.000000028938 Rises=F Damp=F
 DIIS: error= 1.08D-06 at cycle  14 NSaved=  14.
 NSaved=14 IEnMin=14 EnMin= -305.897262698728     IErMin=14 ErrMin= 1.08D-06
 ErrMax= 1.08D-06  0.00D+00 EMaxC= 1.00D-01 BMatC= 1.02D-09 BMatP= 9.74D-09
 IDIUse=1 WtCom= 1.00D+00 WtEn= 0.00D+00
 Coeff-Com:  0.127D-04-0.286D-04 0.775D-05 0.328D-04 0.537D-03 0.322D-03
 Coeff-Com: -0.191D-02-0.107D-01 0.754D-03 0.978D-01-0.385D-03-0.283D+00
 Coeff-Com: -0.176D-01 0.121D+01
 Coeff:      0.127D-04-0.286D-04 0.775D-05 0.328D-04 0.537D-03 0.322D-03
 Coeff:     -0.191D-02-0.107D-01 0.754D-03 0.978D-01-0.385D-03-0.283D+00
 Coeff:     -0.176D-01 0.121D+01
 Gap=     0.365 Goal=   None    Shift=    0.000
 Gap=     0.268 Goal=   None    Shift=    0.000
 RMSDP=3.97D-07 MaxDP=2.45D-05 DE=-2.89D-08 OVMax= 1.43D-04

 Cycle  15  Pass 1  IDiag  1:
 RMSU=  2.39D-07    CP:  1.00D+00  9.91D-01  9.52D-01  1.01D+00  1.55D+00
                    CP:  1.70D+00  1.83D+00  2.35D+00  2.42D+00  3.00D+00
                    CP:  3.00D+00  3.00D+00  3.00D+00  1.24D+00
 E= -305.897262701126     Delta-E=       -0.000000002399 Rises=F Damp=F
 DIIS: error= 2.60D-07 at cycle  15 NSaved=  15.
 NSaved=15 IEnMin=15 EnMin= -305.897262701126     IErMin=15 ErrMin= 2.60D-07
 ErrMax= 2.60D-07  0.00D+00 EMaxC= 1.00D-01 BMatC= 9.12D-11 BMatP= 1.02D-09
 IDIUse=1 WtCom= 1.00D+00 WtEn= 0.00D+00
 Coeff-Com:  0.186D-04-0.409D-04-0.189D-03-0.365D-03-0.139D-04 0.179D-02
 Coeff-Com:  0.294D-02-0.974D-02-0.106D-01 0.150D-01 0.704D-01-0.523D-01
 Coeff-Com: -0.153D+00 0.558D-01 0.108D+01
 Coeff:      0.186D-04-0.409D-04-0.189D-03-0.365D-03-0.139D-04 0.179D-02
 Coeff:      0.294D-02-0.974D-02-0.106D-01 0.150D-01 0.704D-01-0.523D-01
 Coeff:     -0.153D+00 0.558D-01 0.108D+01
 Gap=     0.365 Goal=   None    Shift=    0.000
 Gap=     0.268 Goal=   None    Shift=    0.000
 RMSDP=7.38D-08 MaxDP=3.98D-06 DE=-2.40D-09 OVMax= 2.36D-05

 Cycle  16  Pass 1  IDiag  1:
 RMSU=  2.32D-08    CP:  1.00D+00  9.91D-01  9.52D-01  1.01D+00  1.55D+00
                    CP:  1.70D+00  1.84D+00  2.35D+00  2.42D+00  3.00D+00
                    CP:  3.00D+00  3.00D+00  3.00D+00  1.29D+00  1.24D+00
 E= -305.897262701239     Delta-E=       -0.000000000113 Rises=F Damp=F
 DIIS: error= 6.00D-08 at cycle  16 NSaved=  16.
 NSaved=16 IEnMin=16 EnMin= -305.897262701239     IErMin=16 ErrMin= 6.00D-08
 ErrMax= 6.00D-08  0.00D+00 EMaxC= 1.00D-01 BMatC= 5.74D-12 BMatP= 9.12D-11
 IDIUse=1 WtCom= 1.00D+00 WtEn= 0.00D+00
 Coeff-Com: -0.233D-05 0.479D-05 0.801D-05 0.175D-04-0.198D-04-0.968D-04
 Coeff-Com:  0.122D-06 0.997D-03 0.164D-03-0.685D-02-0.157D-02 0.214D-01
 Coeff-Com:  0.184D-02-0.895D-01-0.224D-01 0.110D+01
 Coeff:     -0.233D-05 0.479D-05 0.801D-05 0.175D-04-0.198D-04-0.968D-04
 Coeff:      0.122D-06 0.997D-03 0.164D-03-0.685D-02-0.157D-02 0.214D-01
 Coeff:      0.184D-02-0.895D-01-0.224D-01 0.110D+01
 Gap=     0.365 Goal=   None    Shift=    0.000
 Gap=     0.268 Goal=   None    Shift=    0.000
 RMSDP=1.38D-08 MaxDP=5.31D-07 DE=-1.13D-10 OVMax= 3.48D-06

 Cycle  17  Pass 1  IDiag  1:
 RMSU=  5.97D-09    CP:  1.00D+00  9.91D-01  9.52D-01  1.01D+00  1.55D+00
                    CP:  1.70D+00  1.84D+00  2.35D+00  2.42D+00  3.00D+00
                    CP:  3.00D+00  3.00D+00  3.00D+00  1.30D+00  1.28D+00
                    CP:  1.28D+00
 E= -305.897262701237     Delta-E=        0.000000000001 Rises=F Damp=F
 DIIS: error= 1.93D-08 at cycle  17 NSaved=  17.
 NSaved=17 IEnMin=16 EnMin= -305.897262701239     IErMin=17 ErrMin= 1.93D-08
 ErrMax= 1.93D-08  0.00D+00 EMaxC= 1.00D-01 BMatC= 6.63D-13 BMatP= 5.74D-12
 IDIUse=1 WtCom= 1.00D+00 WtEn= 0.00D+00
 Coeff-Com: -0.114D-05 0.256D-05 0.113D-04 0.194D-04 0.190D-05-0.117D-03
 Coeff-Com: -0.178D-03 0.650D-03 0.708D-03-0.148D-02-0.457D-02 0.422D-02
 Coeff-Com:  0.117D-01-0.820D-02-0.893D-01 0.361D-01 0.105D+01
 Coeff:     -0.114D-05 0.256D-05 0.113D-04 0.194D-04 0.190D-05-0.117D-03
 Coeff:     -0.178D-03 0.650D-03 0.708D-03-0.148D-02-0.457D-02 0.422D-02
 Coeff:      0.117D-01-0.820D-02-0.893D-01 0.361D-01 0.105D+01
 Gap=     0.365 Goal=   None    Shift=    0.000
 Gap=     0.268 Goal=   None    Shift=    0.000
 RMSDP=3.61D-09 MaxDP=1.35D-07 DE= 1.48D-12 OVMax= 6.46D-07

 SCF Done:  E(UM062X) =  -305.897262701     A.U. after   17 cycles
            NFock= 17  Conv=0.36D-08     -V/T= 2.0051
 <Sx>= 0.0000 <Sy>= 0.0000 <Sz>= 0.5000 <S**2>= 0.7556 S= 0.5028
 <L.S>= 0.000000000000E+00
 KE= 3.043433065939D+02 PE=-1.097045129698D+03 EE= 2.978795589684D+02
 Annihilation of the first spin contaminant:
 S**2 before annihilation     0.7556,   after     0.7500
 Leave Link  502 at Sat Jun 22 12:34:19 2019, MaxMem=   671088640 cpu:             486.6 elap:              24.4
 (Enter /shared/centos7/gaussian/g16/l601.exe)
 Copying SCF densities to generalized density rwf, IOpCl= 1 IROHF=0.

 **********************************************************************

            Population analysis using the SCF density.

 **********************************************************************

 Orbital symmetries:
 Alpha Orbitals:
       Occupied  (A) (A) (A) (A) (A) (A) (A) (A) (A) (A) (A) (A)
                 (A) (A) (A) (A) (A) (A) (A) (A) (A) (A)
       Virtual   (A) (A) (A) (A) (A) (A) (A) (A) (A) (A) (A) (A)
                 (A) (A) (A) (A) (A) (A) (A) (A) (A) (A) (A) (A)
                 (A) (A) (A) (A) (A) (A) (A) (A) (A) (A) (A) (A)
                 (A) (A) (A) (A) (A) (A) (A) (A) (A) (A) (A) (A)
                 (A) (A) (A) (A) (A) (A) (A) (A) (A) (A) (A) (A)
                 (A) (A) (A) (A) (A) (A) (A) (A) (A) (A) (A) (A)
                 (A) (A) (A) (A) (A) (A) (A) (A) (A) (A) (A) (A)
                 (A) (A) (A) (A) (A) (A) (A) (A) (A) (A) (A) (A)
                 (A) (A) (A) (A) (A) (A) (A) (A) (A) (A) (A) (A)
                 (A) (A) (A) (A) (A) (A) (A) (A) (A) (A) (A) (A)
                 (A) (A) (A) (A) (A) (A) (A) (A) (A) (A) (A) (A)
                 (A) (A) (A) (A) (A) (A) (A) (A) (A) (A) (A) (A)
                 (A) (A) (A) (A) (A) (A) (A) (A) (A) (A) (A) (A)
                 (A) (A) (A) (A) (A) (A) (A) (A) (A) (A) (A) (A)
                 (A) (A) (A) (A) (A) (A) (A) (A) (A) (A) (A) (A)
                 (A) (A) (A) (A) (A) (A) (A) (A) (A) (A) (A) (A)
                 (A) (A) (A) (A) (A) (A) (A) (A) (A) (A) (A) (A)
                 (A) (A) (A) (A) (A) (A) (A) (A) (A) (A) (A) (A)
                 (A) (A) (A) (A) (A) (A) (A) (A) (A) (A)
 Beta  Orbitals:
       Occupied  (A) (A) (A) (A) (A) (A) (A) (A) (A) (A) (A) (A)
                 (A) (A) (A) (A) (A) (A) (A) (A) (A)
       Virtual   (A) (A) (A) (A) (A) (A) (A) (A) (A) (A) (A) (A)
                 (A) (A) (A) (A) (A) (A) (A) (A) (A) (A) (A) (A)
                 (A) (A) (A) (A) (A) (A) (A) (A) (A) (A) (A) (A)
                 (A) (A) (A) (A) (A) (A) (A) (A) (A) (A) (A) (A)
                 (A) (A) (A) (A) (A) (A) (A) (A) (A) (A) (A) (A)
                 (A) (A) (A) (A) (A) (A) (A) (A) (A) (A) (A) (A)
                 (A) (A) (A) (A) (A) (A) (A) (A) (A) (A) (A) (A)
                 (A) (A) (A) (A) (A) (A) (A) (A) (A) (A) (A) (A)
                 (A) (A) (A) (A) (A) (A) (A) (A) (A) (A) (A) (A)
                 (A) (A) (A) (A) (A) (A) (A) (A) (A) (A) (A) (A)
                 (A) (A) (A) (A) (A) (A) (A) (A) (A) (A) (A) (A)
                 (A) (A) (A) (A) (A) (A) (A) (A) (A) (A) (A) (A)
                 (A) (A) (A) (A) (A) (A) (A) (A) (A) (A) (A) (A)
                 (A) (A) (A) (A) (A) (A) (A) (A) (A) (A) (A) (A)
                 (A) (A) (A) (A) (A) (A) (A) (A) (A) (A) (A) (A)
                 (A) (A) (A) (A) (A) (A) (A) (A) (A) (A) (A) (A)
                 (A) (A) (A) (A) (A) (A) (A) (A) (A) (A) (A) (A)
                 (A) (A) (A) (A) (A) (A) (A) (A) (A) (A) (A) (A)
                 (A) (A) (A) (A) (A) (A) (A) (A) (A) (A) (A)
 The electronic state is 2-A.
 Alpha  occ. eigenvalues --  -19.73954 -19.71243 -19.62053 -10.58207 -10.53289
 Alpha  occ. eigenvalues --   -1.34182  -1.14243  -0.99740  -0.84165  -0.71151
 Alpha  occ. eigenvalues --   -0.66011  -0.62760  -0.57476  -0.56246  -0.51617
 Alpha  occ. eigenvalues --   -0.50961  -0.44843  -0.43997  -0.39656  -0.39238
 Alpha  occ. eigenvalues --   -0.36208  -0.31781
 Alpha virt. eigenvalues --    0.04716   0.07083   0.10766   0.11300   0.14486
 Alpha virt. eigenvalues --    0.16736   0.17108   0.20764   0.24297   0.25013
 Alpha virt. eigenvalues --    0.27634   0.33342   0.35863   0.38535   0.40109
 Alpha virt. eigenvalues --    0.41791   0.42996   0.45672   0.47044   0.48182
 Alpha virt. eigenvalues --    0.49935   0.51533   0.52557   0.53082   0.56629
 Alpha virt. eigenvalues --    0.57898   0.59402   0.60353   0.63525   0.66286
 Alpha virt. eigenvalues --    0.68619   0.70085   0.71757   0.74405   0.76900
 Alpha virt. eigenvalues --    0.78120   0.84161   0.85509   0.87519   0.89418
 Alpha virt. eigenvalues --    0.91506   0.96898   0.98128   1.02144   1.04699
 Alpha virt. eigenvalues --    1.06777   1.08894   1.11138   1.12615   1.14872
 Alpha virt. eigenvalues --    1.15248   1.20030   1.22410   1.24547   1.27749
 Alpha virt. eigenvalues --    1.28976   1.30419   1.33346   1.33943   1.36409
 Alpha virt. eigenvalues --    1.38220   1.42892   1.45468   1.47979   1.52975
 Alpha virt. eigenvalues --    1.54640   1.58683   1.59503   1.62996   1.68403
 Alpha virt. eigenvalues --    1.75861   1.88662   1.90611   1.96042   2.00868
 Alpha virt. eigenvalues --    2.01597   2.03489   2.05686   2.10183   2.16598
 Alpha virt. eigenvalues --    2.20916   2.24346   2.27022   2.32643   2.34075
 Alpha virt. eigenvalues --    2.36385   2.43357   2.47271   2.50261   2.54121
 Alpha virt. eigenvalues --    2.55040   2.62272   2.65910   2.69374   2.74226
 Alpha virt. eigenvalues --    2.83094   2.86744   2.89482   2.90520   2.92274
 Alpha virt. eigenvalues --    2.95216   2.98511   3.00951   3.03319   3.05065
 Alpha virt. eigenvalues --    3.07101   3.11329   3.11743   3.15948   3.18922
 Alpha virt. eigenvalues --    3.21247   3.23907   3.26451   3.30277   3.30483
 Alpha virt. eigenvalues --    3.31372   3.34120   3.36952   3.40868   3.43763
 Alpha virt. eigenvalues --    3.45320   3.48333   3.50368   3.51392   3.54103
 Alpha virt. eigenvalues --    3.55357   3.56958   3.61801   3.63720   3.68270
 Alpha virt. eigenvalues --    3.69944   3.70741   3.72109   3.76246   3.77584
 Alpha virt. eigenvalues --    3.81843   3.83567   3.84460   3.85980   3.89901
 Alpha virt. eigenvalues --    3.90669   3.91257   3.95507   3.96711   3.98622
 Alpha virt. eigenvalues --    4.00191   4.03831   4.06079   4.07242   4.10667
 Alpha virt. eigenvalues --    4.14287   4.15410   4.17621   4.19467   4.22409
 Alpha virt. eigenvalues --    4.25323   4.33079   4.34760   4.38026   4.39777
 Alpha virt. eigenvalues --    4.47301   4.52999   4.57082   4.60389   4.66985
 Alpha virt. eigenvalues --    4.70030   4.74906   4.78081   4.81954   4.83843
 Alpha virt. eigenvalues --    4.84063   4.86390   4.87372   4.92549   4.94662
 Alpha virt. eigenvalues --    5.01053   5.02058   5.07546   5.09949   5.12402
 Alpha virt. eigenvalues --    5.13993   5.20637   5.26693   5.29145   5.38184
 Alpha virt. eigenvalues --    5.39029   5.51268   5.53798   5.55992   5.66389
 Alpha virt. eigenvalues --    5.72275   5.74917   5.78079   5.87639   5.97447
 Alpha virt. eigenvalues --    6.05168   6.16990   6.20232   6.25099   6.30239
 Alpha virt. eigenvalues --    6.30993   6.37953   6.40514   6.43182   6.49423
 Alpha virt. eigenvalues --    6.56967   6.57525   6.59648   6.61395   6.64741
 Alpha virt. eigenvalues --    6.74623   6.82096   6.87848   6.88867   6.93720
 Alpha virt. eigenvalues --    7.14525   7.19364   7.27366   7.31360   7.32409
 Alpha virt. eigenvalues --    7.60195   9.56480  11.31677  11.59060  12.10537
 Alpha virt. eigenvalues --   13.10366
  Beta  occ. eigenvalues --  -19.73413 -19.69833 -19.62052 -10.58206 -10.53052
  Beta  occ. eigenvalues --   -1.31367  -1.14226  -0.95775  -0.83411  -0.70409
  Beta  occ. eigenvalues --   -0.64410  -0.58581  -0.55669  -0.54013  -0.51340
  Beta  occ. eigenvalues --   -0.49300  -0.43637  -0.40426  -0.39038  -0.36747
  Beta  occ. eigenvalues --   -0.34262
  Beta virt. eigenvalues --   -0.07450   0.04918   0.07125   0.10833   0.11387
  Beta virt. eigenvalues --    0.14821   0.16857   0.17682   0.21099   0.24407
  Beta virt. eigenvalues --    0.25729   0.27990   0.33506   0.36195   0.38593
  Beta virt. eigenvalues --    0.40236   0.42004   0.43114   0.45787   0.47270
  Beta virt. eigenvalues --    0.48501   0.50317   0.51722   0.52732   0.54243
  Beta virt. eigenvalues --    0.57154   0.58011   0.59736   0.61094   0.63840
  Beta virt. eigenvalues --    0.66660   0.68771   0.70713   0.71865   0.74786
  Beta virt. eigenvalues --    0.77128   0.78238   0.84349   0.86003   0.87632
  Beta virt. eigenvalues --    0.89670   0.91639   0.97306   0.98283   1.02318
  Beta virt. eigenvalues --    1.04798   1.07003   1.09269   1.11286   1.12778
  Beta virt. eigenvalues --    1.14939   1.15535   1.20152   1.22623   1.24749
  Beta virt. eigenvalues --    1.28035   1.29307   1.30582   1.33540   1.34274
  Beta virt. eigenvalues --    1.36780   1.38396   1.43386   1.45940   1.48481
  Beta virt. eigenvalues --    1.53231   1.54975   1.59099   1.59586   1.63483
  Beta virt. eigenvalues --    1.68956   1.76689   1.89204   1.91235   1.96398
  Beta virt. eigenvalues --    2.01438   2.02022   2.03870   2.06269   2.10304
  Beta virt. eigenvalues --    2.16901   2.21701   2.24717   2.27529   2.32782
  Beta virt. eigenvalues --    2.34298   2.37139   2.43584   2.47477   2.50386
  Beta virt. eigenvalues --    2.54356   2.55323   2.62431   2.66376   2.69713
  Beta virt. eigenvalues --    2.74470   2.83392   2.86973   2.89831   2.90725
  Beta virt. eigenvalues --    2.92631   2.95348   2.99030   3.01314   3.03776
  Beta virt. eigenvalues --    3.05403   3.07519   3.11463   3.11887   3.16041
  Beta virt. eigenvalues --    3.19426   3.21395   3.24207   3.26527   3.30504
  Beta virt. eigenvalues --    3.30604   3.31763   3.34227   3.37006   3.40747
  Beta virt. eigenvalues --    3.44300   3.45600   3.48399   3.50379   3.51405
  Beta virt. eigenvalues --    3.54345   3.55218   3.57132   3.61892   3.63924
  Beta virt. eigenvalues --    3.68453   3.70014   3.71141   3.72584   3.76495
  Beta virt. eigenvalues --    3.77814   3.81838   3.83840   3.84596   3.86098
  Beta virt. eigenvalues --    3.89650   3.90595   3.91299   3.95719   3.96991
  Beta virt. eigenvalues --    3.98806   4.00550   4.03916   4.06208   4.07530
  Beta virt. eigenvalues --    4.10750   4.14351   4.15417   4.17412   4.19800
  Beta virt. eigenvalues --    4.22378   4.25545   4.33390   4.34773   4.38146
  Beta virt. eigenvalues --    4.39830   4.48041   4.53201   4.57490   4.60458
  Beta virt. eigenvalues --    4.67283   4.70371   4.75025   4.78333   4.82373
  Beta virt. eigenvalues --    4.83969   4.84708   4.87070   4.87872   4.93382
  Beta virt. eigenvalues --    4.94913   5.01258   5.02786   5.07946   5.11166
  Beta virt. eigenvalues --    5.12530   5.14004   5.20768   5.26921   5.29387
  Beta virt. eigenvalues --    5.38483   5.39373   5.52578   5.54776   5.56151
  Beta virt. eigenvalues --    5.67139   5.72534   5.75695   5.78335   5.88344
  Beta virt. eigenvalues --    5.97498   6.06121   6.17195   6.21591   6.27011
  Beta virt. eigenvalues --    6.30892   6.36026   6.38066   6.42340   6.45733
  Beta virt. eigenvalues --    6.55094   6.58107   6.58290   6.61984   6.63132
  Beta virt. eigenvalues --    6.64914   6.74642   6.83457   6.88026   6.91343
  Beta virt. eigenvalues --    6.93745   7.14541   7.19216   7.28963   7.32298
  Beta virt. eigenvalues --    7.34287   7.61527   9.57827  11.31666  11.59472
  Beta virt. eigenvalues --   12.10557  13.10465
          Condensed to atoms (all electrons):
               1          2          3          4          5          6
     1  O    7.881429  -0.000588   0.000097   0.330332  -0.050421  -0.033897
     2  O   -0.000588   7.826464   0.052244  -0.003329  -0.008074   0.013855
     3  O    0.000097   0.052244   8.142070   0.000487  -0.081079  -0.002454
     4  C    0.330332  -0.003329   0.000487   4.719844   0.323366   0.387961
     5  C   -0.050421  -0.008074  -0.081079   0.323366   5.211980  -0.042552
     6  H   -0.033897   0.013855  -0.002454   0.387961  -0.042552   0.634355
     7  H   -0.058257   0.000795  -0.000318   0.404911  -0.068352  -0.071452
     8  H   -0.005453   0.000056   0.002607  -0.036679   0.369994   0.007307
     9  H    0.004975   0.000442   0.000207  -0.035157   0.371104  -0.000392
    10  H    0.324243  -0.000113   0.000017  -0.047508  -0.010537   0.010208
    11  H    0.000541   0.298428  -0.042271   0.001314   0.001167  -0.003917
    12  H    0.002873  -0.013476   0.064693  -0.020182   0.351575  -0.008971
               7          8          9         10         11         12
     1  O   -0.058257  -0.005453   0.004975   0.324243   0.000541   0.002873
     2  O    0.000795   0.000056   0.000442  -0.000113   0.298428  -0.013476
     3  O   -0.000318   0.002607   0.000207   0.000017  -0.042271   0.064693
     4  C    0.404911  -0.036679  -0.035157  -0.047508   0.001314  -0.020182
     5  C   -0.068352   0.369994   0.371104  -0.010537   0.001167   0.351575
     6  H   -0.071452   0.007307  -0.000392   0.010208  -0.003917  -0.008971
     7  H    0.725591  -0.002128   0.000934  -0.008868   0.000109   0.006086
     8  H   -0.002128   0.628685  -0.031821   0.009348   0.000265  -0.026048
     9  H    0.000934  -0.031821   0.587042  -0.000121   0.000040  -0.014619
    10  H   -0.008868   0.009348  -0.000121   0.474287   0.000011  -0.000707
    11  H    0.000109   0.000265   0.000040   0.000011   0.461298  -0.005571
    12  H    0.006086  -0.026048  -0.014619  -0.000707  -0.005571   0.492394
          Atomic-Atomic Spin Densities.
               1          2          3          4          5          6
     1  O   -0.000597   0.000155  -0.000120   0.002230   0.000004   0.000337
     2  O    0.000155   0.275225  -0.110240  -0.004198   0.015006  -0.007363
     3  O   -0.000120  -0.110240   0.822240   0.003254  -0.058443   0.003543
     4  C    0.002230  -0.004198   0.003254  -0.010238  -0.006100   0.006188
     5  C    0.000004   0.015006  -0.058443  -0.006100   0.212925  -0.002387
     6  H    0.000337  -0.007363   0.003543   0.006188  -0.002387   0.009350
     7  H   -0.000316   0.000986  -0.001312  -0.000133  -0.008002  -0.004500
     8  H   -0.000257  -0.000614   0.002950  -0.000097   0.001879   0.000255
     9  H   -0.000044  -0.000515   0.002057   0.000930  -0.000563   0.000107
    10  H   -0.000505  -0.000064   0.000118  -0.000155   0.000680   0.000326
    11  H    0.000008   0.002402  -0.000038   0.000095  -0.000514  -0.000094
    12  H   -0.000086   0.011832  -0.043991   0.000728   0.047094  -0.000457
               7          8          9         10         11         12
     1  O   -0.000316  -0.000257  -0.000044  -0.000505   0.000008  -0.000086
     2  O    0.000986  -0.000614  -0.000515  -0.000064   0.002402   0.011832
     3  O   -0.001312   0.002950   0.002057   0.000118  -0.000038  -0.043991
     4  C   -0.000133  -0.000097   0.000930  -0.000155   0.000095   0.000728
     5  C   -0.008002   0.001879  -0.000563   0.000680  -0.000514   0.047094
     6  H   -0.004500   0.000255   0.000107   0.000326  -0.000094  -0.000457
     7  H    0.033059  -0.002014  -0.000943  -0.001190   0.000000   0.001386
     8  H   -0.002014  -0.002241   0.002043   0.000741  -0.000019  -0.002939
     9  H   -0.000943   0.002043  -0.010990   0.000055   0.000017  -0.000924
    10  H   -0.001190   0.000741   0.000055   0.001072  -0.000001  -0.000282
    11  H    0.000000  -0.000019   0.000017  -0.000001  -0.010420   0.000290
    12  H    0.001386  -0.002939  -0.000924  -0.000282   0.000290  -0.015936
 Mulliken charges and spin densities:
               1          2
     1  O   -0.395874   0.000808
     2  O   -0.166704   0.182614
     3  O   -0.136301   0.620017
     4  C   -0.025360  -0.007495
     5  C   -0.368171   0.201580
     6  H    0.109948   0.005305
     7  H    0.070949   0.017021
     8  H    0.083866  -0.000313
     9  H    0.117367  -0.008771
    10  H    0.249741   0.000796
    11  H    0.288586  -0.008276
    12  H    0.171953  -0.003286
 Sum of Mulliken charges =  -0.00000   1.00000
 Mulliken charges and spin densities with hydrogens summed into heavy atoms:
               1          2
     1  O   -0.146133   0.001604
     2  O    0.121882   0.174338
     3  O   -0.136301   0.620017
     4  C    0.155537   0.014830
     5  C    0.005015   0.189210
 Electronic spatial extent (au):  <R**2>=            576.5803
 Charge=             -0.0000 electrons
 Dipole moment (field-independent basis, Debye):
    X=             -0.3501    Y=              0.1974    Z=             -0.9693  Tot=              1.0494
 Quadrupole moment (field-independent basis, Debye-Ang):
   XX=            -32.0345   YY=            -30.5624   ZZ=            -30.1602
   XY=             -6.6451   XZ=             -1.0390   YZ=              1.1033
 Traceless Quadrupole moment (field-independent basis, Debye-Ang):
   XX=             -1.1154   YY=              0.3566   ZZ=              0.7588
   XY=             -6.6451   XZ=             -1.0390   YZ=              1.1033
 Octapole moment (field-independent basis, Debye-Ang**2):
  XXX=             -2.4122  YYY=             -8.3665  ZZZ=             -3.1140  XYY=              9.6566
  XXY=              1.6367  XXZ=             -8.8083  XZZ=              0.6352  YZZ=             -2.0998
  YYZ=             -2.3416  XYZ=              5.4206
 Hexadecapole moment (field-independent basis, Debye-Ang**3):
 XXXX=           -439.3306 YYYY=           -152.8011 ZZZZ=            -68.8883 XXXY=            -24.6190
 XXXZ=             12.6996 YYYX=             -8.8613 YYYZ=              4.4202 ZZZX=              3.6984
 ZZZY=              2.5203 XXYY=           -105.7051 XXZZ=            -79.4280 YYZZ=            -35.4909
 XXYZ=              2.5085 YYXZ=             -4.7108 ZZXY=             -3.5242
 N-N= 1.889250014341D+02 E-N=-1.097045129165D+03  KE= 3.043433065939D+02
                          Isotropic Fermi Contact Couplings
        Atom                 a.u.       MegaHertz       Gauss      10(-4) cm-1
     1  O(17)              0.00049      -0.29579      -0.10554      -0.09866
     2  O(17)              0.02560     -15.51942      -5.53772      -5.17672
     3  O(17)              0.15748     -95.46268     -34.06346     -31.84292
     4  C(13)              0.00097       1.09143       0.38945       0.36406
     5  C(13)              0.09723     109.30802      39.00382      36.46123
     6  H(1)               0.00537      23.99652       8.56255       8.00438
     7  H(1)               0.00753      33.65170      12.00776      11.22500
     8  H(1)               0.00251      11.22483       4.00530       3.74420
     9  H(1)              -0.00261     -11.66843      -4.16358      -3.89217
    10  H(1)               0.00003       0.14081       0.05025       0.04697
    11  H(1)              -0.00453     -20.26837      -7.23226      -6.76080
    12  H(1)              -0.01184     -52.90266     -18.87699     -17.64643
 --------------------------------------------------------
       Center         ----  Spin Dipole Couplings  ----
                      3XX-RR        3YY-RR        3ZZ-RR
 --------------------------------------------------------
     1   Atom        0.002700     -0.000730     -0.001971
     2   Atom        1.044452     -0.515634     -0.528818
     3   Atom        2.829200     -1.386195     -1.443005
     4   Atom        0.021745     -0.009011     -0.012734
     5   Atom        0.191079     -0.108062     -0.083018
     6   Atom        0.006436     -0.000593     -0.005843
     7   Atom        0.001964     -0.003471      0.001508
     8   Atom        0.004506     -0.009721      0.005215
     9   Atom       -0.002019      0.000735      0.001283
    10   Atom        0.004084     -0.001675     -0.002410
    11   Atom       -0.019968      0.011036      0.008932
    12   Atom        0.132882     -0.057037     -0.075845
 --------------------------------------------------------
                        XY            XZ            YZ
 --------------------------------------------------------
     1   Atom        0.008047      0.000019     -0.002888
     2   Atom       -0.289820     -0.031272      0.051302
     3   Atom       -0.609085     -0.144485      0.025597
     4   Atom       -0.005489     -0.009199      0.000046
     5   Atom       -0.094829     -0.130500      0.038009
     6   Atom        0.001552     -0.004541     -0.006592
     7   Atom        0.000902     -0.004882     -0.000223
     8   Atom       -0.011814      0.008993     -0.010157
     9   Atom       -0.004400     -0.002301      0.018669
    10   Atom        0.001948      0.001908      0.000802
    11   Atom        0.002664      0.006618      0.037809
    12   Atom       -0.078897     -0.002681     -0.003078
 --------------------------------------------------------


 ---------------------------------------------------------------------------------
              Anisotropic Spin Dipole Couplings in Principal Axis System
 ---------------------------------------------------------------------------------

       Atom             a.u.   MegaHertz   Gauss  10(-4) cm-1        Axes

              Baa    -0.0081     0.586     0.209     0.196 -0.5590  0.7494  0.3549
     1 O(17)  Bbb    -0.0014     0.102     0.036     0.034  0.3456 -0.1785  0.9212
              Bcc     0.0095    -0.688    -0.245    -0.229  0.7537  0.6376 -0.1592
 
              Baa    -0.5976    43.238    15.429    14.423  0.1346  0.8225 -0.5526
     2 O(17)  Bbb    -0.5000    36.178    12.909    12.068  0.1183  0.5404  0.8331
              Bcc     1.0975   -79.417   -28.338   -26.491  0.9838 -0.1775 -0.0245
 
              Baa    -1.4735   106.618    38.044    35.564  0.1310  0.9719 -0.1953
     3 O(17)  Bbb    -1.4469   104.698    37.359    34.924  0.0600  0.1889  0.9802
              Bcc     2.9204  -211.316   -75.403   -70.487  0.9896 -0.1402 -0.0336
 
              Baa    -0.0153    -2.057    -0.734    -0.686  0.2658  0.2240  0.9376
     4 C(13)  Bbb    -0.0096    -1.282    -0.458    -0.428  0.0934  0.9621 -0.2563
              Bcc     0.0249     3.340     1.192     1.114  0.9595 -0.1557 -0.2348
 
              Baa    -0.1356   -18.199    -6.494    -6.071  0.1721  0.9502 -0.2597
     5 C(13)  Bbb    -0.1352   -18.142    -6.474    -6.052  0.4084  0.1711  0.8966
              Bcc     0.2708    36.342    12.968    12.122  0.8965 -0.2603 -0.3586
 
              Baa    -0.0108    -5.776    -2.061    -1.927  0.1746  0.5144  0.8396
     6 H(1)   Bbb     0.0013     0.718     0.256     0.240 -0.5460  0.7602 -0.3522
              Bcc     0.0095     5.058     1.805     1.687  0.8194  0.3969 -0.4136
 
              Baa    -0.0038    -2.050    -0.731    -0.684 -0.4292  0.8296 -0.3572
     7 H(1)   Bbb    -0.0028    -1.518    -0.542    -0.506  0.5404  0.5527  0.6344
              Bcc     0.0067     3.568     1.273     1.190  0.7237  0.0793 -0.6855
 
              Baa    -0.0175    -9.361    -3.340    -3.122  0.3763  0.8923  0.2495
     8 H(1)   Bbb    -0.0040    -2.148    -0.766    -0.716 -0.6710  0.0767  0.7374
              Bcc     0.0216    11.508     4.107     3.839  0.6388 -0.4449  0.6276
 
              Baa    -0.0178    -9.504    -3.391    -3.170  0.0994  0.7175 -0.6894
     9 H(1)   Bbb    -0.0029    -1.523    -0.543    -0.508  0.9738  0.0723  0.2156
              Bcc     0.0207    11.027     3.935     3.678 -0.2045  0.6928  0.6915
 
              Baa    -0.0030    -1.610    -0.575    -0.537 -0.1626 -0.3212  0.9330
    10 H(1)   Bbb    -0.0022    -1.184    -0.422    -0.395 -0.3540  0.9016  0.2487
              Bcc     0.0052     2.794     0.997     0.932  0.9210  0.2898  0.2603
 
              Baa    -0.0288   -15.388    -5.491    -5.133 -0.3277 -0.6384  0.6964
    11 H(1)   Bbb    -0.0196   -10.452    -3.730    -3.486  0.9400 -0.2945  0.1723
              Bcc     0.0484    25.840     9.220     8.619  0.0951  0.7111  0.6966
 
              Baa    -0.0869   -46.340   -16.535   -15.457  0.3229  0.8882  0.3270
    12 H(1)   Bbb    -0.0745   -39.770   -14.191   -13.266 -0.1055 -0.3096  0.9450
              Bcc     0.1614    86.110    30.726    28.723  0.9405 -0.3396 -0.0062
 

 ---------------------------------------------------------------------------------

 No NMR shielding tensors so no spin-rotation constants.
 Leave Link  601 at Sat Jun 22 12:34:19 2019, MaxMem=   671088640 cpu:               7.5 elap:               0.5
 (Enter /shared/centos7/gaussian/g16/l701.exe)
 ... and contract with generalized density number  0.
 Compute integral first derivatives.
 Leave Link  701 at Sat Jun 22 12:34:19 2019, MaxMem=   671088640 cpu:               4.0 elap:               0.2
 (Enter /shared/centos7/gaussian/g16/l702.exe)
 L702 exits ... SP integral derivatives will be done elsewhere.
 Leave Link  702 at Sat Jun 22 12:34:19 2019, MaxMem=   671088640 cpu:               1.0 elap:               0.1
 (Enter /shared/centos7/gaussian/g16/l703.exe)
 Integral derivatives from FoFJK, PRISM(SPDF).
 Compute integral first derivatives, UseDBF=F ICtDFT=           0.
 Calling FoFJK, ICntrl=      2127 FMM=F ISym2X=0 I1Cent= 0 IOpClX= 1 NMat=1 NMatS=1 NMatT=0.
 FoFJK:  IHMeth= 1 ICntrl=    2127 DoSepK=F KAlg= 0 I1Cent=           0 FoldK=F
 IRaf=         0 NMat=       1 IRICut=       1 DoRegI=T DoRafI=F ISym2E= 0 IDoP0=0 IntGTp=1.
 FoFCou: FMM=F IPFlag=           0 FMFlag=      100000 FMFlg1=         800
         NFxFlg=           0 DoJE=F BraDBF=F KetDBF=F FulRan=T
         wScrn=  0.000000 ICntrl=      2127 IOpCl=  1 I1Cent=           0 NGrid=           0
         NMat0=    1 NMatS0=      1 NMatT0=    0 NMatD0=    1 NMtDS0=    0 NMtDT0=    0
 Symmetry not used in FoFCou.
 Leave Link  703 at Sat Jun 22 12:34:24 2019, MaxMem=   671088640 cpu:              98.3 elap:               5.0
 (Enter /shared/centos7/gaussian/g16/l716.exe)
 Dipole        =-1.37733097D-01 7.76616194D-02-3.81369744D-01
 ***** Axes restored to original set *****
 -------------------------------------------------------------------
 Center     Atomic                   Forces (Hartrees/Bohr)
 Number     Number              X              Y              Z
 -------------------------------------------------------------------
      1        8           0.016024742   -0.015918951    0.025183923
      2        8           0.010232522    0.029889331    0.004306827
      3        8           0.018087902   -0.001625378   -0.034557838
      4        6          -0.013527778   -0.006496486   -0.012530979
      5        6          -0.001871799   -0.013343710    0.008623711
      6        1          -0.000736463   -0.008120062    0.009766494
      7        1           0.008037930    0.004119773   -0.001563019
      8        1          -0.004896241    0.004101508   -0.008668775
      9        1           0.006916427    0.011131763    0.004370804
     10        1          -0.009802584    0.022215321   -0.018431340
     11        1          -0.014976662   -0.007590517   -0.007828350
     12        1          -0.013487996   -0.018362591    0.031328542
 -------------------------------------------------------------------
 Cartesian Forces:  Max     0.034557838 RMS     0.014576499
 Leave Link  716 at Sat Jun 22 12:34:24 2019, MaxMem=   671088640 cpu:               0.6 elap:               0.1
 (Enter /shared/centos7/gaussian/g16/l103.exe)

 GradGradGradGradGradGradGradGradGradGradGradGradGradGradGradGradGradGrad
 Berny optimization.
 FormGI is forming the generalized inverse of G from B-inverse, IUseBI=4.
 Internal  Forces:  Max     0.044820714 RMS     0.011245054
 Search for a local minimum.
 Step number   1 out of a maximum of  100
 All quantities printed in internal units (Hartrees-Bohrs-Radians)
 RMS Force = .84050D-02 SwitMx=.10000D-02 MixMth= 1
 Mixed Optimization -- RFO/linear search
 Second derivative matrix not updated -- first step.
 ITU=  0
     Eigenvalues ---    0.00230   0.00230   0.00476   0.01673   0.02403
     Eigenvalues ---    0.04748   0.04926   0.05342   0.05896   0.11189
     Eigenvalues ---    0.11893   0.13683   0.14109   0.16000   0.16000
     Eigenvalues ---    0.16000   0.16000   0.22033   0.30185   0.32264
     Eigenvalues ---    0.32530   0.32543   0.32614   0.45381   0.48977
     Eigenvalues ---    0.49394   0.628761000.000001000.000001000.00000
     Eigenvalues --- 1000.000001000.000001000.000001000.000001000.00000
     Eigenvalues --- 1000.000001000.000001000.000001000.000001000.00000
     Eigenvalues --- 1000.000001000.000001000.000001000.00000
 RFO step:  Lambda=-1.03448096D-02 EMin= 2.30000000D-03
 Linear search not attempted -- first point.
 Iteration  1 RMS(Cart)=  0.13731919 RMS(Int)=  0.01197848
 Iteration  2 RMS(Cart)=  0.02884850 RMS(Int)=  0.00064089
 Iteration  3 RMS(Cart)=  0.00087075 RMS(Int)=  0.00021161
 Iteration  4 RMS(Cart)=  0.00000067 RMS(Int)=  0.00021161
 Iteration  1 RMS(Cart)=  0.00000000 RMS(Int)=  0.00000000
 ITry= 1 IFail=0 DXMaxC= 5.36D-01 DCOld= 1.00D+10 DXMaxT= 3.00D-01 DXLimC= 3.00D+00 Rises=F
 Variable       Old X    -DE/DX   Delta X   Delta X   Delta X     New X
                                 (Linear)    (Quad)   (Total)
    R1        2.64835   0.01038   0.00000   0.02235   0.02235   2.67071
    R2        1.87612  -0.03043   0.00000  -0.06085  -0.06085   1.81527
    R3        2.48734   0.02157   0.00000   0.03374   0.03374   2.52109
    R4        1.87182  -0.01762   0.00000  -0.03495  -0.03495   1.83687
    R5        2.58171   0.04482   0.00000   0.00000   0.00000   2.58171
    R6        2.87596  -0.00215   0.00000  -0.00688  -0.00688   2.86907
    R7        2.09734  -0.01249   0.00000  -0.03711  -0.03711   2.06023
    R8        2.10363  -0.00914   0.00000  -0.02745  -0.02745   2.07618
    R9        2.09885  -0.01072   0.00000  -0.03193  -0.03193   2.06693
   R10        2.09862  -0.01365   0.00000  -0.04065  -0.04065   2.05797
   R11        2.18751   0.00517   0.00000   0.00000  -0.00000   2.18751
    A1        1.86178   0.00478   0.00000   0.02808   0.02808   1.88987
    A2        1.80682   0.01092   0.00000   0.06413   0.06413   1.87095
    A3        1.84327   0.01496   0.00000   0.08784   0.08784   1.93111
    A4        1.98673  -0.00202   0.00000  -0.00759  -0.00767   1.97905
    A5        1.86227  -0.00147   0.00000  -0.02036  -0.02037   1.84190
    A6        1.92384   0.00222   0.00000   0.02214   0.02212   1.94596
    A7        1.91557   0.00200   0.00000   0.00613   0.00601   1.92159
    A8        1.90918   0.00050   0.00000   0.00876   0.00869   1.91787
    A9        1.86173  -0.00123   0.00000  -0.01003  -0.00997   1.85176
   A10        1.93956  -0.00228   0.00000  -0.01891  -0.01846   1.92110
   A11        1.94317  -0.00040   0.00000   0.00723   0.00678   1.94994
   A12        1.92444   0.00867   0.00000   0.05408   0.05389   1.97833
   A13        1.88637   0.00114   0.00000  -0.00021  -0.00034   1.88603
   A14        1.90542  -0.00460   0.00000  -0.03758  -0.03728   1.86814
   A15        1.86270  -0.00280   0.00000  -0.00605  -0.00693   1.85578
   A16        2.58388   0.02514   0.00000   0.00000   0.00000   2.58388
    D1       -0.81876  -0.00069   0.00000  -0.02887  -0.02881  -0.84757
    D2       -2.93439  -0.00093   0.00000  -0.01765  -0.01781  -2.95220
    D3        1.33382   0.00020   0.00000  -0.00583  -0.00572   1.32810
    D4        1.46934  -0.00127   0.00000  -0.03692  -0.03692   1.43242
    D5        1.12889   0.00326   0.00000   0.25795   0.25795   1.38684
    D6        0.53645   0.00222   0.00000   0.10493   0.10490   0.64135
    D7        2.64028   0.00185   0.00000   0.09670   0.09649   2.73677
    D8       -1.57882   0.00369   0.00000   0.12843   0.12869  -1.45014
    D9        2.62211   0.00042   0.00000   0.07823   0.07818   2.70029
   D10       -1.55725   0.00005   0.00000   0.06999   0.06977  -1.48748
   D11        0.50684   0.00189   0.00000   0.10172   0.10196   0.60880
   D12       -1.62409   0.00038   0.00000   0.07471   0.07467  -1.54943
   D13        0.47974   0.00001   0.00000   0.06647   0.06626   0.54600
   D14        2.54382   0.00185   0.00000   0.09820   0.09845   2.64227
   D15       -1.15775  -0.00128   0.00000  -0.03728  -0.03756  -1.19531
   D16        2.98994  -0.00101   0.00000  -0.02391  -0.02351   2.96643
   D17        0.95509   0.00150   0.00000  -0.00124  -0.00136   0.95373
         Item               Value     Threshold  Converged?
 Maximum Force            0.030433     0.002500     NO 
 RMS     Force            0.008405     0.001667     NO 
 Maximum Displacement     0.535774     0.010000     NO 
 RMS     Displacement     0.159844     0.006667     NO 
 Predicted change in Energy=-6.101683D-03
 Lowest energy point so far.  Saving SCF results.
 GradGradGradGradGradGradGradGradGradGradGradGradGradGradGradGradGradGrad

 Leave Link  103 at Sat Jun 22 12:34:25 2019, MaxMem=   671088640 cpu:               1.6 elap:               0.1
 (Enter /shared/centos7/gaussian/g16/l202.exe)
                          Input orientation:                          
 ---------------------------------------------------------------------
 Center     Atomic      Atomic             Coordinates (Angstroms)
 Number     Number       Type             X           Y           Z
 ---------------------------------------------------------------------
      1          8           0       -3.482705    2.764155    6.760350
      2          8           0       -2.317119    3.265087    3.158004
      3          8           0       -1.885650    2.003732    3.209427
      4          6           0       -3.913721    1.954649    5.685046
      5          6           0       -2.849771    0.989990    5.192580
      6          1           0       -4.188121    2.647774    4.889513
      7          1           0       -4.829721    1.403330    5.938137
      8          1           0       -2.262974    0.615673    6.036316
      9          1           0       -3.287400    0.134696    4.679802
     10          1           0       -3.072026    2.197490    7.418365
     11          1           0       -1.620222    3.823117    3.542426
     12          1           0       -2.104828    1.469785    4.447697
 ---------------------------------------------------------------------
                    Distance matrix (angstroms):
                    1          2          3          4          5
     1  O    0.000000
     2  O    3.819218   0.000000
     3  O    3.967101   1.334102   0.000000
     4  C    1.413278   3.263791   3.200652   0.000000
     5  C    2.450750   3.098272   2.426952   1.518249   0.000000
     6  H    2.002795   2.622947   2.922132   1.090225   2.152041
     7  H    2.083826   4.184310   4.058805   1.098665   2.155669
     8  H    2.574479   3.912417   3.171811   2.154347   1.093771
     9  H    3.358703   3.613401   2.760471   2.171411   1.089031
    10  H    0.960599   4.456493   4.377236   1.942117   2.541963
    11  H    3.865913   0.972031   1.868557   3.652688   3.501630
    12  H    2.987023   2.220695   1.366181   2.244598   1.157581
                    6          7          8          9         10
     6  H    0.000000
     7  H    1.749258   0.000000
     8  H    3.025026   2.686677   0.000000
     9  H    2.677843   2.360423   1.766612   0.000000
    10  H    2.800628   2.431308   2.250949   3.435293   0.000000
    11  H    3.128926   4.679283   4.113431   4.204469   4.446718
    12  H    2.433716   3.106585   1.810588   1.798558   3.207787
                   11         12
    11  H    0.000000
    12  H    2.567593   0.000000
 Stoichiometry    C2H7O3(2)
 Framework group  C1[X(C2H7O3)]
 Deg. of freedom    30
 Full point group                 C1      NOp   1
 RotChk:  IX=0 Diff= 1.70D-01
 Largest Abelian subgroup         C1      NOp   1
 Largest concise Abelian subgroup C1      NOp   1
                         Standard orientation:                         
 ---------------------------------------------------------------------
 Center     Atomic      Atomic             Coordinates (Angstroms)
 Number     Number       Type             X           Y           Z
 ---------------------------------------------------------------------
      1          8           0       -1.905891   -0.850921   -0.336629
      2          8           0        1.878269   -0.812633    0.178242
      3          8           0        1.828709    0.475991   -0.163547
      4          6           0       -1.253853    0.018854    0.566528
      5          6           0       -0.503241    1.146868   -0.118488
      6          1           0       -0.559039   -0.608205    1.125652
      7          1           0       -1.954629    0.430964    1.305543
      8          1           0       -1.059333    1.489305   -0.995889
      9          1           0       -0.362054    1.998569    0.545334
     10          1           0       -2.400826   -0.317946   -0.964105
     11          1           0        1.918126   -1.327126   -0.645501
     12          1           0        0.551625    0.840606   -0.483803
 ---------------------------------------------------------------------
 Rotational constants (GHZ):           7.9691673           2.3208306           1.9749721
 Leave Link  202 at Sat Jun 22 12:34:25 2019, MaxMem=   671088640 cpu:               0.8 elap:               0.1
 (Enter /shared/centos7/gaussian/g16/l301.exe)
 Standard basis: CC-pVTZ (5D, 7F)
 Ernie: Thresh=  0.10000D-02 Tol=  0.10000D-05 Strict=F.
 Ernie:  15 primitive shells out of 186 were deleted.
 There are   280 symmetry adapted cartesian basis functions of A   symmetry.
 There are   248 symmetry adapted basis functions of A   symmetry.
   248 basis functions,   379 primitive gaussians,   280 cartesian basis functions
    22 alpha electrons       21 beta electrons
       nuclear repulsion energy       186.3247196478 Hartrees.
 IExCor= 4336 DFT=T Ex+Corr=M062X ExCW=0 ScaHFX=  0.540000
 ScaDFX=  1.000000  1.000000  1.000000  1.000000 ScalE2=  1.000000  1.000000
 IRadAn=      1 IRanWt=     -1 IRanGd=            0 ICorTp=0 IEmpDi=  4
 NAtoms=   12 NActive=   12 NUniq=   12 SFac= 1.00D+00 NAtFMM=   60 NAOKFM=F Big=F
 Integral buffers will be    131072 words long.
 Raffenetti 2 integral format.
 Two-electron integral symmetry is turned on.
 Leave Link  301 at Sat Jun 22 12:34:25 2019, MaxMem=   671088640 cpu:               1.2 elap:               0.1
 (Enter /shared/centos7/gaussian/g16/l302.exe)
 NPDir=0 NMtPBC=     1 NCelOv=     1 NCel=       1 NClECP=     1 NCelD=      1
         NCelK=      1 NCelE2=     1 NClLst=     1 CellRange=     0.0.
 One-electron integrals computed using PRISM.
 One-electron integral symmetry used in STVInt
 NBasis=   248 RedAO= T EigKep=  8.80D-04  NBF=   248
 NBsUse=   248 1.00D-06 EigRej= -1.00D+00 NBFU=   248
 Precomputing XC quadrature grid using
 IXCGrd= 4 IRadAn=           1 IRanWt=          -1 IRanGd=           0 AccXCQ= 0.00D+00.
 Generated NRdTot=       0 NPtTot=           0 NUsed=           0 NTot=          32
 NSgBfM=   280   280   280   280   280 MxSgAt=    12 MxSgA2=    12.
 Leave Link  302 at Sat Jun 22 12:34:25 2019, MaxMem=   671088640 cpu:               4.5 elap:               0.3
 (Enter /shared/centos7/gaussian/g16/l303.exe)
 DipDrv:  MaxL=1.
 Leave Link  303 at Sat Jun 22 12:34:25 2019, MaxMem=   671088640 cpu:               0.7 elap:               0.1
 (Enter /shared/centos7/gaussian/g16/l401.exe)
 Initial guess from the checkpoint file:  "/scratch/harms.n/gauss_scrdir/Gau-36332.chk"
 B after Tr=    -0.000000    0.000000   -0.000000
         Rot=    0.999056    0.038640    0.008957   -0.017730 Ang=   4.98 deg.
 Guess basis will be translated and rotated to current coordinates.
 JPrj=2 DoOrth=T DoCkMO=T.
 Initial guess <Sx>= 0.0000 <Sy>= 0.0000 <Sz>= 0.5000 <S**2>= 0.7557 S= 0.5029
 Generating alternative initial guess.
 ExpMin= 1.03D-01 ExpMax= 1.53D+04 ExpMxC= 5.22D+02 IAcc=1 IRadAn=         1 AccDes= 0.00D+00
 Harris functional with IExCor= 1009 and IRadAn=       1 diagonalized for initial guess.
 HarFok:  IExCor= 1009 AccDes= 0.00D+00 IRadAn=         1 IDoV= 1 UseB2=F ITyADJ=14
 ICtDFT=  3500011 ScaDFX=  1.000000  1.000000  1.000000  1.000000
 FoFCou: FMM=F IPFlag=           0 FMFlag=      100000 FMFlg1=           0
         NFxFlg=           0 DoJE=T BraDBF=F KetDBF=T FulRan=T
         wScrn=  0.000000 ICntrl=       500 IOpCl=  0 I1Cent=   200000004 NGrid=           0
         NMat0=    1 NMatS0=      1 NMatT0=    0 NMatD0=    1 NMtDS0=    0 NMtDT0=    0
 Petite list used in FoFCou.
 Harris En= -305.793404015366    
 Leave Link  401 at Sat Jun 22 12:34:26 2019, MaxMem=   671088640 cpu:              11.6 elap:               0.6
 (Enter /shared/centos7/gaussian/g16/l502.exe)
 Integral symmetry usage will be decided dynamically.
 UHF open shell SCF:
 Using DIIS extrapolation, IDIIS=  1040.
 NGot=   671088640 LenX=   670923676 LenY=   670844835
 Requested convergence on RMS density matrix=1.00D-08 within 900 cycles.
 Requested convergence on MAX density matrix=1.00D-06.
 Requested convergence on             energy=1.00D-06.
 No special actions if energy rises.
 Fock matrices will be formed incrementally for  20 cycles.

 Cycle   1  Pass 1  IDiag  1:
 FoFJK:  IHMeth= 1 ICntrl=       0 DoSepK=F KAlg= 0 I1Cent=           0 FoldK=F
 IRaf= 970000000 NMat=       1 IRICut=       1 DoRegI=T DoRafI=F ISym2E= 0 IDoP0=0 IntGTp=1.
 FoFCou: FMM=F IPFlag=           0 FMFlag=      100000 FMFlg1=           0
         NFxFlg=           0 DoJE=F BraDBF=F KetDBF=F FulRan=T
         wScrn=  0.000000 ICntrl=         0 IOpCl=  1 I1Cent=           0 NGrid=           0
         NMat0=    1 NMatS0=      1 NMatT0=    0 NMatD0=    1 NMtDS0=    0 NMtDT0=    0
 Symmetry not used in FoFCou.
 E= -305.860528010423    
 DIIS: error= 6.44D-03 at cycle   1 NSaved=   1.
 NSaved= 1 IEnMin= 1 EnMin= -305.860528010423     IErMin= 1 ErrMin= 6.44D-03
 ErrMax= 6.44D-03  0.00D+00 EMaxC= 1.00D-01 BMatC= 1.05D-01 BMatP= 1.05D-01
 IDIUse=3 WtCom= 9.36D-01 WtEn= 6.44D-02
 Coeff-Com:  0.100D+01
 Coeff-En:   0.100D+01
 Coeff:      0.100D+01
 Gap=     0.868 Goal=   None    Shift=    0.000
 Gap=     0.892 Goal=   None    Shift=    0.000
 GapD=    0.868 DampG=2.000 DampE=1.000 DampFc=2.0000 IDamp=-1.
 RMSDP=6.49D-04 MaxDP=1.39D-02              OVMax= 5.92D-02

 Cycle   2  Pass 1  IDiag  1:
 RMSU=  6.48D-04    CP:  9.97D-01
 E= -305.898213386472     Delta-E=       -0.037685376049 Rises=F Damp=F
 DIIS: error= 1.53D-03 at cycle   2 NSaved=   2.
 NSaved= 2 IEnMin= 2 EnMin= -305.898213386472     IErMin= 2 ErrMin= 1.53D-03
 ErrMax= 1.53D-03  0.00D+00 EMaxC= 1.00D-01 BMatC= 5.98D-03 BMatP= 1.05D-01
 IDIUse=3 WtCom= 9.85D-01 WtEn= 1.53D-02
 Coeff-Com: -0.106D+00 0.111D+01
 Coeff-En:   0.000D+00 0.100D+01
 Coeff:     -0.104D+00 0.110D+01
 Gap=     0.376 Goal=   None    Shift=    0.000
 Gap=     0.262 Goal=   None    Shift=    0.000
 RMSDP=2.13D-04 MaxDP=6.76D-03 DE=-3.77D-02 OVMax= 2.09D-02

 Cycle   3  Pass 1  IDiag  1:
 RMSU=  1.61D-04    CP:  9.96D-01  1.21D+00
 E= -305.900236501903     Delta-E=       -0.002023115430 Rises=F Damp=F
 DIIS: error= 1.67D-03 at cycle   3 NSaved=   3.
 NSaved= 3 IEnMin= 3 EnMin= -305.900236501903     IErMin= 2 ErrMin= 1.53D-03
 ErrMax= 1.67D-03  0.00D+00 EMaxC= 1.00D-01 BMatC= 5.05D-03 BMatP= 5.98D-03
 IDIUse=3 WtCom= 9.83D-01 WtEn= 1.67D-02
 Coeff-Com: -0.947D-01 0.576D+00 0.519D+00
 Coeff-En:   0.000D+00 0.000D+00 0.100D+01
 Coeff:     -0.931D-01 0.566D+00 0.527D+00
 Gap=     0.374 Goal=   None    Shift=    0.000
 Gap=     0.267 Goal=   None    Shift=    0.000
 RMSDP=8.62D-05 MaxDP=3.46D-03 DE=-2.02D-03 OVMax= 1.02D-02

 Cycle   4  Pass 1  IDiag  1:
 RMSU=  6.48D-05    CP:  9.96D-01  1.27D+00  7.17D-01
 E= -305.901143998446     Delta-E=       -0.000907496544 Rises=F Damp=F
 DIIS: error= 5.75D-04 at cycle   4 NSaved=   4.
 NSaved= 4 IEnMin= 4 EnMin= -305.901143998446     IErMin= 4 ErrMin= 5.75D-04
 ErrMax= 5.75D-04  0.00D+00 EMaxC= 1.00D-01 BMatC= 3.79D-04 BMatP= 5.05D-03
 IDIUse=3 WtCom= 9.94D-01 WtEn= 5.75D-03
 Coeff-Com: -0.108D-01-0.198D-01 0.182D+00 0.849D+00
 Coeff-En:   0.000D+00 0.000D+00 0.000D+00 0.100D+01
 Coeff:     -0.108D-01-0.197D-01 0.181D+00 0.849D+00
 Gap=     0.374 Goal=   None    Shift=    0.000
 Gap=     0.267 Goal=   None    Shift=    0.000
[...]
 Alpha virt. eigenvalues --    3.32858   3.36226   3.40856   3.42571   3.44874
 Alpha virt. eigenvalues --    3.46317   3.47732   3.51699   3.52112   3.58625
 Alpha virt. eigenvalues --    3.59325   3.63979   3.67149   3.70351   3.72936
 Alpha virt. eigenvalues --    3.74217   3.76005   3.77206   3.78406   3.80602
 Alpha virt. eigenvalues --    3.84094   3.85820   3.87329   3.89073   3.89454
 Alpha virt. eigenvalues --    3.91294   3.95230   3.97691   3.98767   4.01172
 Alpha virt. eigenvalues --    4.03435   4.05435   4.07753   4.12283   4.14458
 Alpha virt. eigenvalues --    4.17032   4.18526   4.20884   4.25492   4.26709
 Alpha virt. eigenvalues --    4.27731   4.32275   4.35843   4.40128   4.43437
 Alpha virt. eigenvalues --    4.54912   4.58899   4.60734   4.62862   4.69557
 Alpha virt. eigenvalues --    4.71817   4.76277   4.77924   4.81410   4.83838
 Alpha virt. eigenvalues --    4.86479   4.90342   4.93608   4.94827   4.96827
 Alpha virt. eigenvalues --    5.02209   5.07935   5.10183   5.11385   5.14875
 Alpha virt. eigenvalues --    5.16786   5.25451   5.31764   5.35165   5.39500
 Alpha virt. eigenvalues --    5.43613   5.51127   5.55049   5.56606   5.65978
 Alpha virt. eigenvalues --    5.72571   5.74806   5.81371   5.87326   5.95280
 Alpha virt. eigenvalues --    6.02613   6.17969   6.19822   6.27919   6.31608
 Alpha virt. eigenvalues --    6.33197   6.40791   6.44001   6.44909   6.49498
 Alpha virt. eigenvalues --    6.56602   6.60623   6.63319   6.66448   6.70233
 Alpha virt. eigenvalues --    6.79678   6.83754   6.87111   6.89764   7.05362
 Alpha virt. eigenvalues --    7.14776   7.19164   7.29298   7.31455   7.39861
 Alpha virt. eigenvalues --    7.59856   9.73307  11.65350  12.08953  12.34823
 Alpha virt. eigenvalues --   13.29965
  Beta  occ. eigenvalues --  -19.71101 -19.69052 -19.64408 -10.59639 -10.53125
  Beta  occ. eigenvalues --   -1.28917  -1.16480  -0.94717  -0.85172  -0.72318
  Beta  occ. eigenvalues --   -0.63805  -0.58223  -0.54981  -0.54332  -0.53542
  Beta  occ. eigenvalues --   -0.49408  -0.44854  -0.42368  -0.40165  -0.36431
  Beta  occ. eigenvalues --   -0.35443
  Beta virt. eigenvalues --   -0.07017   0.05646   0.09204   0.09740   0.12278
  Beta virt. eigenvalues --    0.14389   0.15592   0.18503   0.19618   0.23139
  Beta virt. eigenvalues --    0.26400   0.28457   0.29951   0.35658   0.36682
  Beta virt. eigenvalues --    0.38438   0.40578   0.44889   0.45862   0.46713
  Beta virt. eigenvalues --    0.48060   0.49534   0.51050   0.52451   0.54239
  Beta virt. eigenvalues --    0.57349   0.58457   0.59215   0.61542   0.62838
  Beta virt. eigenvalues --    0.65843   0.69195   0.73298   0.73455   0.78269
  Beta virt. eigenvalues --    0.79338   0.81665   0.83280   0.85900   0.89078
  Beta virt. eigenvalues --    0.91490   0.95765   0.96262   1.01132   1.02168
  Beta virt. eigenvalues --    1.05329   1.09492   1.10596   1.13135   1.14532
  Beta virt. eigenvalues --    1.17556   1.17995   1.19283   1.21562   1.23099
  Beta virt. eigenvalues --    1.25492   1.31156   1.31811   1.34558   1.36054
  Beta virt. eigenvalues --    1.38462   1.41892   1.42481   1.45496   1.50133
  Beta virt. eigenvalues --    1.52533   1.57606   1.58350   1.64025   1.70885
  Beta virt. eigenvalues --    1.73166   1.75541   1.86503   1.93052   1.96162
  Beta virt. eigenvalues --    2.01004   2.03307   2.09363   2.09836   2.11175
  Beta virt. eigenvalues --    2.16950   2.24396   2.26829   2.29595   2.31851
  Beta virt. eigenvalues --    2.36641   2.38777   2.43144   2.51887   2.52418
  Beta virt. eigenvalues --    2.54975   2.58869   2.63954   2.65585   2.72717
  Beta virt. eigenvalues --    2.75541   2.82801   2.84343   2.88032   2.92245
  Beta virt. eigenvalues --    2.94649   2.96077   2.98002   3.01279   3.04679
  Beta virt. eigenvalues --    3.06263   3.09228   3.11308   3.13129   3.14896
  Beta virt. eigenvalues --    3.17273   3.20964   3.25784   3.28185   3.29729
  Beta virt. eigenvalues --    3.30625   3.33300   3.36230   3.40763   3.42751
  Beta virt. eigenvalues --    3.45057   3.46648   3.47813   3.51743   3.52230
  Beta virt. eigenvalues --    3.58610   3.59721   3.64365   3.67746   3.70665
  Beta virt. eigenvalues --    3.73254   3.74402   3.76193   3.77364   3.78617
  Beta virt. eigenvalues --    3.81180   3.84439   3.85777   3.87404   3.89167
  Beta virt. eigenvalues --    3.89870   3.91127   3.95462   3.97966   3.99079
  Beta virt. eigenvalues --    4.01311   4.03450   4.05869   4.07407   4.12604
  Beta virt. eigenvalues --    4.14572   4.17148   4.19141   4.21128   4.25584
  Beta virt. eigenvalues --    4.26760   4.27730   4.32518   4.35995   4.40210
  Beta virt. eigenvalues --    4.43899   4.55622   4.59424   4.60845   4.63030
  Beta virt. eigenvalues --    4.69687   4.72044   4.76586   4.78266   4.81593
  Beta virt. eigenvalues --    4.84159   4.86888   4.90645   4.94170   4.95912
  Beta virt. eigenvalues --    4.97633   5.02525   5.08773   5.10808   5.11811
  Beta virt. eigenvalues --    5.15215   5.17478   5.25614   5.31992   5.35608
  Beta virt. eigenvalues --    5.39611   5.44194   5.52499   5.55378   5.57184
  Beta virt. eigenvalues --    5.66749   5.72949   5.75534   5.81807   5.88247
  Beta virt. eigenvalues --    5.95439   6.03643   6.18311   6.21245   6.30221
  Beta virt. eigenvalues --    6.33037   6.37012   6.42155   6.46926   6.48054
  Beta virt. eigenvalues --    6.52616   6.59241   6.63096   6.65005   6.66578
  Beta virt. eigenvalues --    6.70529   6.80677   6.84107   6.87158   6.92459
  Beta virt. eigenvalues --    7.05610   7.14919   7.19333   7.30679   7.34671
  Beta virt. eigenvalues --    7.39915   7.61169   9.74851  11.65738  12.08995
  Beta virt. eigenvalues --   12.34855  13.30147
          Condensed to atoms (all electrons):
               1          2          3          4          5          6
     1  O    7.968821  -0.031022   0.001770   0.250445  -0.046026  -0.041832
     2  O   -0.031022   7.828271   0.063788   0.016021  -0.003618   0.006409
     3  O    0.001770   0.063788   8.135657  -0.007793  -0.081568  -0.000595
     4  C    0.250445   0.016021  -0.007793   4.825343   0.309945   0.403413
     5  C   -0.046026  -0.003618  -0.081568   0.309945   5.191551  -0.050537
     6  H   -0.041832   0.006409  -0.000595   0.403413  -0.050537   0.594429
     7  H   -0.032687   0.000293  -0.000153   0.417954  -0.044129  -0.048400
     8  H   -0.004606   0.000716  -0.000038  -0.037019   0.382818   0.008699
     9  H    0.006044  -0.000038   0.002493  -0.036066   0.368884  -0.003454
    10  H    0.306991   0.000750   0.002835  -0.035211  -0.006250   0.010147
    11  H    0.051609   0.302591  -0.036283  -0.002941  -0.004625  -0.007671
    12  H    0.002564  -0.018189   0.063593  -0.019743   0.368343  -0.005862
               7          8          9         10         11         12
     1  O   -0.032687  -0.004606   0.006044   0.306991   0.051609   0.002564
     2  O    0.000293   0.000716  -0.000038   0.000750   0.302591  -0.018189
     3  O   -0.000153  -0.000038   0.002493   0.002835  -0.036283   0.063593
     4  C    0.417954  -0.037019  -0.036066  -0.035211  -0.002941  -0.019743
     5  C   -0.044129   0.382818   0.368884  -0.006250  -0.004625   0.368343
     6  H   -0.048400   0.008699  -0.003454   0.010147  -0.007671  -0.005862
     7  H    0.597413  -0.008882  -0.000729  -0.005335   0.001328   0.004490
     8  H   -0.008882   0.599434  -0.032731   0.006494  -0.000497  -0.023728
     9  H   -0.000729  -0.032731   0.601832   0.000059  -0.000102  -0.016316
    10  H   -0.005335   0.006494   0.000059   0.454814  -0.005311  -0.001168
    11  H    0.001328  -0.000497  -0.000102  -0.005311   0.415188   0.005442
    12  H    0.004490  -0.023728  -0.016316  -0.001168   0.005442   0.455708
          Atomic-Atomic Spin Densities.
               1          2          3          4          5          6
     1  O    0.000517  -0.000768   0.001309   0.001727  -0.001886   0.000993
     2  O   -0.000768   0.291504  -0.110041  -0.001231   0.013240  -0.001541
     3  O    0.001309  -0.110041   0.822981  -0.000930  -0.056402   0.000329
     4  C    0.001727  -0.001231  -0.000930  -0.017656   0.003549   0.000707
     5  C   -0.001886   0.013240  -0.056402   0.003549   0.207214   0.000028
     6  H    0.000993  -0.001541   0.000329   0.000707   0.000028   0.002122
     7  H   -0.002123   0.000498  -0.000923   0.002541  -0.007400  -0.001336
     8  H    0.000637  -0.000522   0.002957  -0.000989   0.000092  -0.000215
     9  H    0.000028  -0.000499   0.002166   0.001550   0.000759   0.000117
    10  H    0.000192   0.000116  -0.000635   0.000077  -0.000104  -0.000061
    11  H    0.000355   0.001066  -0.000253   0.000175   0.000113  -0.000024
    12  H   -0.000752   0.008256  -0.026862   0.002860   0.031890   0.000545
               7          8          9         10         11         12
     1  O   -0.002123   0.000637   0.000028   0.000192   0.000355  -0.000752
     2  O    0.000498  -0.000522  -0.000499   0.000116   0.001066   0.008256
     3  O   -0.000923   0.002957   0.002166  -0.000635  -0.000253  -0.026862
     4  C    0.002541  -0.000989   0.001550   0.000077   0.000175   0.002860
     5  C   -0.007400   0.000092   0.000759  -0.000104   0.000113   0.031890
     6  H   -0.001336  -0.000215   0.000117  -0.000061  -0.000024   0.000545
     7  H    0.023477  -0.001300  -0.001632   0.000064   0.000051   0.000881
     8  H   -0.001300  -0.008253   0.002641  -0.000108   0.000069  -0.001116
     9  H   -0.001632   0.002641  -0.009017  -0.000049   0.000023  -0.000811
    10  H    0.000064  -0.000108  -0.000049  -0.000017   0.000080   0.000294
    11  H    0.000051   0.000069   0.000023   0.000080  -0.008946  -0.000935
    12  H    0.000881  -0.001116  -0.000811   0.000294  -0.000935  -0.026981
 Mulliken charges and spin densities:
               1          2
     1  O   -0.432071   0.000229
     2  O   -0.165971   0.200076
     3  O   -0.143706   0.633696
     4  C   -0.084348  -0.007619
     5  C   -0.384787   0.191094
     6  H    0.135255   0.001665
     7  H    0.118837   0.012798
     8  H    0.109342  -0.006106
     9  H    0.110124  -0.004724
    10  H    0.271186  -0.000152
    11  H    0.281272  -0.008227
    12  H    0.184867  -0.012730
 Sum of Mulliken charges =  -0.00000   1.00000
 Mulliken charges and spin densities with hydrogens summed into heavy atoms:
               1          2
     1  O   -0.160885   0.000077
     2  O    0.115302   0.191850
     3  O   -0.143706   0.633696
     4  C    0.169745   0.006843
     5  C    0.019545   0.167534
 Electronic spatial extent (au):  <R**2>=            478.3283
 Charge=             -0.0000 electrons
 Dipole moment (field-independent basis, Debye):
    X=             -2.1328    Y=             -0.0692    Z=             -0.6199  Tot=              2.2221
 Quadrupole moment (field-independent basis, Debye-Ang):
   XX=            -33.5058   YY=            -32.1545   ZZ=            -28.7843
   XY=             -2.6443   XZ=              0.1294   YZ=              0.7727
 Traceless Quadrupole moment (field-independent basis, Debye-Ang):
   XX=             -2.0243   YY=             -0.6730   ZZ=              2.6972
   XY=             -2.6443   XZ=              0.1294   YZ=              0.7727
 Octapole moment (field-independent basis, Debye-Ang**2):
  XXX=              0.0754  YYY=             -3.3036  ZZZ=             -5.8933  XYY=              6.4253
  XXY=             -2.6008  XXZ=             -2.1557  XZZ=             -1.4000  YZZ=             -3.9896
  YYZ=              0.2384  XYZ=             -0.0746
 Hexadecapole moment (field-independent basis, Debye-Ang**3):
 XXXX=           -330.5719 YYYY=           -185.9508 ZZZZ=            -66.3273 XXXY=              3.1880
 XXXZ=             -0.9004 YYYX=             -5.4396 YYYZ=              1.0763 ZZZX=              6.2140
 ZZZY=              4.1549 XXYY=            -87.3359 XXZZ=            -65.7136 YYZZ=            -38.9509
 XXYZ=              2.2588 YYXZ=              0.2234 ZZXY=              2.6169
 N-N= 1.978141007520D+02 E-N=-1.114769290831D+03  KE= 3.044584868741D+02
                          Isotropic Fermi Contact Couplings
        Atom                 a.u.       MegaHertz       Gauss      10(-4) cm-1
     1  O(17)              0.00136      -0.82569      -0.29463      -0.27542
     2  O(17)              0.03360     -20.36784      -7.26775      -6.79398
     3  O(17)              0.15376     -93.20884     -33.25923     -31.09112
     4  C(13)             -0.00516      -5.79565      -2.06803      -1.93322
     5  C(13)              0.09511     106.91645      38.15045      35.66349
     6  H(1)               0.00207       9.26254       3.30510       3.08965
     7  H(1)               0.00580      25.94075       9.25630       8.65290
     8  H(1)              -0.00130      -5.81538      -2.07507      -1.93980
     9  H(1)               0.00000       0.00793       0.00283       0.00264
    10  H(1)              -0.00005      -0.21013      -0.07498      -0.07009
    11  H(1)              -0.00393     -17.56553      -6.26782      -5.85923
    12  H(1)              -0.01493     -66.74304     -23.81558     -22.26308
 --------------------------------------------------------
       Center         ----  Spin Dipole Couplings  ----
                      3XX-RR        3YY-RR        3ZZ-RR
 --------------------------------------------------------
     1   Atom        0.000406      0.003396     -0.003802
     2   Atom        0.543180     -0.293261     -0.249919
     3   Atom        1.679666     -1.080675     -0.598990
     4   Atom        0.010219     -0.004123     -0.006096
     5   Atom        0.248169     -0.123523     -0.124646
     6   Atom        0.002374     -0.002608      0.000234
     7   Atom        0.005325     -0.001491     -0.003834
     8   Atom        0.004994     -0.015231      0.010237
     9   Atom        0.001658      0.001879     -0.003537
    10   Atom        0.002778     -0.000196     -0.002582
    11   Atom       -0.002841      0.028194     -0.025352
    12   Atom        0.121441     -0.042113     -0.079328
 --------------------------------------------------------
                        XY            XZ            YZ
 --------------------------------------------------------
     1   Atom        0.002981     -0.001713      0.004670
     2   Atom       -0.527142     -0.626631      0.352803
     3   Atom       -1.129835     -1.645441      0.604649
     4   Atom        0.006915      0.003226      0.001586
     5   Atom       -0.012482     -0.010567      0.000151
     6   Atom        0.001775     -0.005079     -0.004987
     7   Atom        0.002310     -0.002223     -0.000685
     8   Atom       -0.005637      0.009867     -0.006361
     9   Atom       -0.008275     -0.006156      0.015703
    10   Atom        0.004747      0.003895      0.003892
    11   Atom        0.030937      0.005679      0.015062
    12   Atom       -0.080359     -0.035658      0.015589
 --------------------------------------------------------


 ---------------------------------------------------------------------------------
              Anisotropic Spin Dipole Couplings in Principal Axis System
 ---------------------------------------------------------------------------------

       Atom             a.u.   MegaHertz   Gauss  10(-4) cm-1        Axes

              Baa    -0.0072     0.522     0.186     0.174  0.3622 -0.4590  0.8112
     1 O(17)  Bbb     0.0008    -0.060    -0.021    -0.020  0.8687 -0.1493 -0.4723
              Bcc     0.0064    -0.462    -0.165    -0.154  0.3379  0.8758  0.3447
 
              Baa    -0.6335    45.842    16.357    15.291  0.1798 -0.5600  0.8088
     2 O(17)  Bbb    -0.5293    38.297    13.665    12.774  0.5761  0.7264  0.3748
              Bcc     1.1628   -84.138   -30.023   -28.065  0.7974 -0.3985 -0.4532
 
              Baa    -1.4919   107.951    38.520    36.009  0.1006  0.9000 -0.4241
     3 O(17)  Bbb    -1.4573   105.450    37.627    35.174  0.5272  0.3133  0.7899
              Bcc     2.9492  -213.401   -76.147   -71.183  0.8438 -0.3030 -0.4429
 
              Baa    -0.0071    -0.953    -0.340    -0.318 -0.2071  0.7887 -0.5789
     4 C(13)  Bbb    -0.0066    -0.880    -0.314    -0.294 -0.3552  0.4907  0.7956
              Bcc     0.0137     1.833     0.654     0.611  0.9115  0.3704  0.1786
 
              Baa    -0.1250   -16.772    -5.985    -5.594  0.0342  0.1905  0.9811
     5 C(13)  Bbb    -0.1239   -16.627    -5.933    -5.546  0.0275  0.9811 -0.1915
              Bcc     0.2489    33.398    11.917    11.140  0.9990 -0.0335 -0.0283
 
              Baa    -0.0068    -3.615    -1.290    -1.206  0.2363  0.7026  0.6712
     6 H(1)   Bbb    -0.0017    -0.894    -0.319    -0.298  0.7184 -0.5914  0.3662
              Bcc     0.0085     4.509     1.609     1.504  0.6543  0.3957 -0.6445
 
              Baa    -0.0044    -2.323    -0.829    -0.775  0.2086  0.0651  0.9758
     7 H(1)   Bbb    -0.0022    -1.174    -0.419    -0.392 -0.2938  0.9559 -0.0010
              Bcc     0.0066     3.497     1.248     1.167  0.9328  0.2865 -0.2185
 
              Baa    -0.0173    -9.231    -3.294    -3.079  0.1738  0.9713  0.1621
     8 H(1)   Bbb    -0.0026    -1.373    -0.490    -0.458  0.7829 -0.0365 -0.6211
              Bcc     0.0199    10.604     3.784     3.537  0.5974 -0.2349  0.7668
 
              Baa    -0.0168    -8.958    -3.196    -2.988 -0.0411 -0.6538  0.7556
     9 H(1)   Bbb    -0.0039    -2.076    -0.741    -0.692  0.8784  0.3367  0.3392
              Bcc     0.0207    11.034     3.937     3.680 -0.4761  0.6776  0.5604
 
              Baa    -0.0055    -2.927    -1.044    -0.976 -0.0842 -0.5404  0.8372
    10 H(1)   Bbb    -0.0034    -1.803    -0.643    -0.602  0.6992 -0.6307 -0.3367
              Bcc     0.0089     4.730     1.688     1.578  0.7100  0.5570  0.4310
 
              Baa    -0.0298   -15.898    -5.673    -5.303  0.2063 -0.3476  0.9147
    11 H(1)   Bbb    -0.0208   -11.089    -3.957    -3.699  0.8371 -0.4214 -0.3489
              Bcc     0.0506    26.987     9.630     9.002  0.5068  0.8376  0.2040
 
              Baa    -0.0857   -45.733   -16.319   -15.255  0.1154 -0.1391  0.9835
    12 H(1)   Bbb    -0.0749   -39.969   -14.262   -13.332  0.3904  0.9168  0.0838
              Bcc     0.1606    85.701    30.580    28.587  0.9134 -0.3743 -0.1601
 

 ---------------------------------------------------------------------------------

 No NMR shielding tensors so no spin-rotation constants.
 Leave Link  601 at Sat Jun 22 12:44:15 2019, MaxMem=   671088640 cpu:               6.0 elap:               0.3
 (Enter /shared/centos7/gaussian/g16/l9999.exe)
 1\1\GINC-C0093\FOpt\UM062X\CC-pVTZ\C2H7O3(2)\HARMS.N\22-Jun-2019\0\\#p
  m062x/cc-pVTZ Opt=(ModRedun,Loose,maxcycles=900) Int(Grid=SG1) scf=(m
 axcycle=900)\\Gaussian input prepared by ASE\\0,2\O,-3.188328618,3.046
 4903457,6.0451318378\O,-2.1796311423,3.2796171218,3.5637672614\O,-1.39
 9180689,2.2737985295,3.9528795814\C,-3.9006420239,1.922460722,5.515198
 7807\C,-2.9748775181,0.8100044163,5.0774170671\H,-4.4597079797,2.30844
 49351,4.6628762482\H,-4.6230480137,1.569938438,6.2562245878\H,-2.39720
 87593,0.4226341222,5.9186056815\H,-3.5324026554,-0.009377213,4.6226228
 593\H,-2.4863676573,2.7175167388,6.6141851744\H,-2.4530228757,3.684852
 9172,4.4144491995\H,-2.2198399422,1.2430986398,4.3143034567\\Version=E
 M64L-G16RevA.03\State=2-A\HF=-305.9136949\S2=0.755695\S2-1=0.\S2A=0.75
 0025\RMSD=6.876e-09\RMSF=1.044e-02\Dipole=-0.344872,-0.2924102,0.74824
 81\Quadrupole=-0.252561,0.6630354,-0.4104745,1.0598038,2.3903549,-0.54
 74806\PG=C01 [X(C2H7O3)]\\@


 THOSE WHO ARE UNABLE TO LEARN FROM PAST MEETINGS
 ARE CONDEMNED TO REPEAT THEM.
 Job cpu time:       0 days  3 hours 24 minutes 13.9 seconds.
 Elapsed time:       0 days  0 hours 10 minutes 21.2 seconds.
 File lengths (MBytes):  RWF=    304 Int=      0 D2E=      0 Chk=     32 Scr=     32
 Normal termination of Gaussian 16 at Sat Jun 22 12:44:15 2019.
