 Entering Gaussian System, Link 0=g16
 Input=/scratch/harms.n//autotst-2.0-QMScratch/ts/CCO+[O]O_OO+[CH2]CO/conformers/CCO+[O]O_OO+[CH2]CO_forward_2.com
 Output=/scratch/harms.n//autotst-2.0-QMScratch/ts/CCO+[O]O_OO+[CH2]CO/conformers/CCO+[O]O_OO+[CH2]CO_forward_2.log
 Initial command:
 /shared/centos7/gaussian/g16/l1.exe "/scratch/harms.n/gauss_scrdir/Gau-36554.inp" -scrdir="/scratch/harms.n/gauss_scrdir/"
 Entering Link 1 = /shared/centos7/gaussian/g16/l1.exe PID=     36555.
  
 Copyright (c) 1988,1990,1992,1993,1995,1998,2003,2009,2016,
            Gaussian, Inc.  All Rights Reserved.
  
 This is part of the Gaussian(R) 16 program.  It is based on
 the Gaussian(R) 09 system (copyright 2009, Gaussian, Inc.),
 the Gaussian(R) 03 system (copyright 2003, Gaussian, Inc.),
 the Gaussian(R) 98 system (copyright 1998, Gaussian, Inc.),
 the Gaussian(R) 94 system (copyright 1995, Gaussian, Inc.),
 the Gaussian 92(TM) system (copyright 1992, Gaussian, Inc.),
 the Gaussian 90(TM) system (copyright 1990, Gaussian, Inc.),
 the Gaussian 88(TM) system (copyright 1988, Gaussian, Inc.),
 the Gaussian 86(TM) system (copyright 1986, Carnegie Mellon
 University), and the Gaussian 82(TM) system (copyright 1983,
 Carnegie Mellon University). Gaussian is a federally registered
 trademark of Gaussian, Inc.
  
 This software contains proprietary and confidential information,
 including trade secrets, belonging to Gaussian, Inc.
  
 This software is provided under written license and may be
 used, copied, transmitted, or stored only in accord with that
 written license.
  
 The following legend is applicable only to US Government
 contracts under FAR:
  
                    RESTRICTED RIGHTS LEGEND
  
 Use, reproduction and disclosure by the US Government is
 subject to restrictions as set forth in subparagraphs (a)
 and (c) of the Commercial Computer Software - Restricted
 Rights clause in FAR 52.227-19.
  
 Gaussian, Inc.
 340 Quinnipiac St., Bldg. 40, Wallingford CT 06492
  
  
 ---------------------------------------------------------------
 Warning -- This program may not be used in any manner that
 competes with the business of Gaussian, Inc. or will provide
 assistance to any competitor of Gaussian, Inc.  The licensee
 of this program is prohibited from giving any competitor of
 Gaussian, Inc. access to this program.  By using this program,
 the user acknowledges that Gaussian, Inc. is engaged in the
 business of creating and licensing software in the field of
 computational chemistry and represents and warrants to the
 licensee that it is not a competitor of Gaussian, Inc. and that
 it will not use this program in any manner prohibited above.
 ---------------------------------------------------------------
  

 Cite this work as:
 Gaussian 16, Revision A.03,
 M. J. Frisch, G. W. Trucks, H. B. Schlegel, G. E. Scuseria, 
 M. A. Robb, J. R. Cheeseman, G. Scalmani, V. Barone, 
 G. A. Petersson, H. Nakatsuji, X. Li, M. Caricato, A. V. Marenich, 
 J. Bloino, B. G. Janesko, R. Gomperts, B. Mennucci, H. P. Hratchian, 
 J. V. Ortiz, A. F. Izmaylov, J. L. Sonnenberg, D. Williams-Young, 
 F. Ding, F. Lipparini, F. Egidi, J. Goings, B. Peng, A. Petrone, 
 T. Henderson, D. Ranasinghe, V. G. Zakrzewski, J. Gao, N. Rega, 
 G. Zheng, W. Liang, M. Hada, M. Ehara, K. Toyota, R. Fukuda, 
 J. Hasegawa, M. Ishida, T. Nakajima, Y. Honda, O. Kitao, H. Nakai, 
 T. Vreven, K. Throssell, J. A. Montgomery, Jr., J. E. Peralta, 
 F. Ogliaro, M. J. Bearpark, J. J. Heyd, E. N. Brothers, K. N. Kudin, 
 V. N. Staroverov, T. A. Keith, R. Kobayashi, J. Normand, 
 K. Raghavachari, A. P. Rendell, J. C. Burant, S. S. Iyengar, 
 J. Tomasi, M. Cossi, J. M. Millam, M. Klene, C. Adamo, R. Cammi, 
 J. W. Ochterski, R. L. Martin, K. Morokuma, O. Farkas, 
 J. B. Foresman, and D. J. Fox, Gaussian, Inc., Wallingford CT, 2016.
 
 ******************************************
 Gaussian 16:  EM64L-G16RevA.03 25-Dec-2016
                22-Jun-2019 
 ******************************************
 %nprocshared=20
 Will use up to   20 processors via shared memory.
 %mem=5GB
 ----------------------------------------------------------------------
 #p m062x/cc-pVTZ opt=(ts,calcfc,noeigentest,maxcycles=900) freq scf=(m
 axcycle=900) IOP(7/33=1,2/16=3)
 ----------------------------------------------------------------------
 1/5=1,6=900,10=4,11=1,18=20,26=3,38=1/1,3;
 2/9=110,12=2,16=3,17=6,18=5,40=1/2;
 3/5=16,6=1,11=2,25=1,30=1,71=2,74=-55,140=1/1,2,3;
 4//1;
 5/5=2,7=900,38=5/2;
 8/6=4,10=90,11=11/1;
 11/6=1,8=1,9=11,15=111,16=1/1,2,10;
 10/6=1,13=1/2;
 6/7=2,8=2,9=2,10=2,28=1/1;
 7/10=1,18=20,25=1,33=1/1,2,3,16;
 1/5=1,6=900,10=4,11=1,18=20,26=3/3(2);
 2/9=110,16=3/2;
 99//99;
 2/9=110,16=3/2;
 3/5=16,6=1,11=2,25=1,30=1,71=1,74=-55/1,2,3;
 4/5=5,16=3,69=1/1;
 5/5=2,7=900,38=5/2;
 7/33=1/1,2,3,16;
 1/5=1,6=900,11=1,18=20,26=3/3(-5);
 2/9=110,16=3/2;
 6/7=2,8=2,9=2,10=2,19=2,28=1/1;
 99/9=1/99;
 Leave Link    1 at Sat Jun 22 12:31:10 2019, MaxMem=   671088640 cpu:              12.6 elap:               0.7
 (Enter /shared/centos7/gaussian/g16/l101.exe)
 ------------------------------
 Gaussian input prepared by ASE
 ------------------------------
 Symbolic Z-matrix:
 Charge =  0 Multiplicity = 2
 O                    -1.9981   -0.60976  -0.49551 
 O                     1.86695  -0.63865   0.35646 
 O                     1.65864   0.17484  -0.74941 
 C                    -1.21066  -0.1306    0.5729 
 C                    -0.37841   1.05923   0.20281 
 H                    -1.83707   0.1194    1.4425 
 H                    -0.56267  -0.95399   0.87402 
 H                     0.56296   0.55224  -0.6516 
 H                    -0.88754   1.82802  -0.37612 
 H                     0.23564   1.46218   1.00199 
 H                    -2.59509   0.08887  -0.77506 
 H                     2.3983   -0.07996   0.93766 
 
 Add virtual bond connecting atoms H8         and O3         Dist= 2.20D+00.
 Add virtual bond connecting atoms H8         and C5         Dist= 2.59D+00.
 ITRead=  0  0  0  0  0  0  0  0  0  0  0  0
 MicOpt= -1 -1 -1 -1 -1 -1 -1 -1 -1 -1 -1 -1
 NAtoms=     12 NQM=       12 NQMF=       0 NMMI=      0 NMMIF=      0
                NMic=       0 NMicF=      0.
                    Isotopes and Nuclear Properties:
 (Nuclear quadrupole moments (NQMom) in fm**2, nuclear magnetic moments (NMagM)
  in nuclear magnetons)

  Atom         1           2           3           4           5           6           7           8           9          10
 IAtWgt=          16          16          16          12          12           1           1           1           1           1
 AtmWgt=  15.9949146  15.9949146  15.9949146  12.0000000  12.0000000   1.0078250   1.0078250   1.0078250   1.0078250   1.0078250
 NucSpn=           0           0           0           0           0           1           1           1           1           1
 AtZEff=  -0.0000000  -0.0000000  -0.0000000  -0.0000000  -0.0000000  -0.0000000  -0.0000000  -0.0000000  -0.0000000  -0.0000000
 NQMom=    0.0000000   0.0000000   0.0000000   0.0000000   0.0000000   0.0000000   0.0000000   0.0000000   0.0000000   0.0000000
 NMagM=    0.0000000   0.0000000   0.0000000   0.0000000   0.0000000   2.7928460   2.7928460   2.7928460   2.7928460   2.7928460
 AtZNuc=   8.0000000   8.0000000   8.0000000   6.0000000   6.0000000   1.0000000   1.0000000   1.0000000   1.0000000   1.0000000

  Atom        11          12
 IAtWgt=           1           1
 AtmWgt=   1.0078250   1.0078250
 NucSpn=           1           1
 AtZEff=  -0.0000000  -0.0000000
 NQMom=    0.0000000   0.0000000
 NMagM=    2.7928460   2.7928460
 AtZNuc=   1.0000000   1.0000000
 Leave Link  101 at Sat Jun 22 12:31:10 2019, MaxMem=   671088640 cpu:               5.7 elap:               0.3
 (Enter /shared/centos7/gaussian/g16/l103.exe)

 GradGradGradGradGradGradGradGradGradGradGradGradGradGradGradGradGradGrad
 Berny optimization.
 Initialization pass.
                           ----------------------------
                           !    Initial Parameters    !
                           ! (Angstroms and Degrees)  !
 --------------------------                            --------------------------
 ! Name  Definition              Value          Derivative Info.                !
 --------------------------------------------------------------------------------
 ! R1    R(1,4)                  1.4111         calculate D2E/DX2 analytically  !
 ! R2    R(1,11)                 0.9605         calculate D2E/DX2 analytically  !
 ! R3    R(2,3)                  1.3886         calculate D2E/DX2 analytically  !
 ! R4    R(2,12)                 0.9655         calculate D2E/DX2 analytically  !
 ! R5    R(3,8)                  1.163          calculate D2E/DX2 analytically  !
 ! R6    R(4,5)                  1.4984         calculate D2E/DX2 analytically  !
 ! R7    R(4,6)                  1.1005         calculate D2E/DX2 analytically  !
 ! R8    R(4,7)                  1.0902         calculate D2E/DX2 analytically  !
 ! R9    R(5,8)                  1.3687         calculate D2E/DX2 analytically  !
 ! R10   R(5,9)                  1.0888         calculate D2E/DX2 analytically  !
 ! R11   R(5,10)                 1.0854         calculate D2E/DX2 analytically  !
 ! A1    A(4,1,11)             108.6761         calculate D2E/DX2 analytically  !
 ! A2    A(3,2,12)             102.8833         calculate D2E/DX2 analytically  !
 ! A3    A(2,3,8)              105.3358         calculate D2E/DX2 analytically  !
 ! A4    A(1,4,5)              113.1148         calculate D2E/DX2 analytically  !
 ! A5    A(1,4,6)              110.9648         calculate D2E/DX2 analytically  !
 ! A6    A(1,4,7)              106.5207         calculate D2E/DX2 analytically  !
 ! A7    A(5,4,6)              109.325          calculate D2E/DX2 analytically  !
 ! A8    A(5,4,7)              109.7431         calculate D2E/DX2 analytically  !
 ! A9    A(6,4,7)              106.956          calculate D2E/DX2 analytically  !
 ! A10   A(4,5,8)              104.0082         calculate D2E/DX2 analytically  !
 ! A11   A(4,5,9)              115.6128         calculate D2E/DX2 analytically  !
 ! A12   A(4,5,10)             115.2869         calculate D2E/DX2 analytically  !
 ! A13   A(8,5,9)              104.5517         calculate D2E/DX2 analytically  !
 ! A14   A(8,5,10)             102.0085         calculate D2E/DX2 analytically  !
 ! A15   A(9,5,10)             113.1984         calculate D2E/DX2 analytically  !
 ! A16   A(3,8,5)              145.1562         calculate D2E/DX2 analytically  !
 ! D1    D(11,1,4,5)           -60.4335         calculate D2E/DX2 analytically  !
 ! D2    D(11,1,4,6)            62.856          calculate D2E/DX2 analytically  !
 ! D3    D(11,1,4,7)           178.9221         calculate D2E/DX2 analytically  !
 ! D4    D(12,2,3,8)          -103.603          calculate D2E/DX2 analytically  !
 ! D5    D(2,3,8,5)             44.3462         calculate D2E/DX2 analytically  !
 ! D6    D(1,4,5,8)            -69.6957         calculate D2E/DX2 analytically  !
 ! D7    D(1,4,5,9)             44.3067         calculate D2E/DX2 analytically  !
 ! D8    D(1,4,5,10)           179.5098         calculate D2E/DX2 analytically  !
 ! D9    D(6,4,5,8)            166.1143         calculate D2E/DX2 analytically  !
 ! D10   D(6,4,5,9)            -79.8834         calculate D2E/DX2 analytically  !
 ! D11   D(6,4,5,10)            55.3197         calculate D2E/DX2 analytically  !
 ! D12   D(7,4,5,8)             49.0999         calculate D2E/DX2 analytically  !
 ! D13   D(7,4,5,9)            163.1022         calculate D2E/DX2 analytically  !
 ! D14   D(7,4,5,10)           -61.6946         calculate D2E/DX2 analytically  !
 ! D15   D(4,5,8,3)            -99.1034         calculate D2E/DX2 analytically  !
 ! D16   D(9,5,8,3)            139.2241         calculate D2E/DX2 analytically  !
 ! D17   D(10,5,8,3)            21.1059         calculate D2E/DX2 analytically  !
 --------------------------------------------------------------------------------
 Trust Radius=3.00D-01 FncErr=1.00D-07 GrdErr=1.00D-06 EigMax=2.50D+02 EigMin=1.00D-04
 Number of steps in this run=    100 maximum allowed number of steps=    100.
 Search for a saddle point of order  1.
 GradGradGradGradGradGradGradGradGradGradGradGradGradGradGradGradGradGrad

 Leave Link  103 at Sat Jun 22 12:31:10 2019, MaxMem=   671088640 cpu:               0.4 elap:               0.0
 (Enter /shared/centos7/gaussian/g16/l202.exe)
                          Input orientation:                          
 ---------------------------------------------------------------------
 Center     Atomic      Atomic             Coordinates (Angstroms)
 Number     Number       Type             X           Y           Z
 ---------------------------------------------------------------------
      1          8           0       -1.998102   -0.609756   -0.495505
      2          8           0        1.866947   -0.638647    0.356455
      3          8           0        1.658636    0.174837   -0.749406
      4          6           0       -1.210659   -0.130600    0.572898
      5          6           0       -0.378405    1.059227    0.202811
      6          1           0       -1.837068    0.119398    1.442503
      7          1           0       -0.562665   -0.953986    0.874021
      8          1           0        0.562956    0.552238   -0.651597
      9          1           0       -0.887543    1.828023   -0.376123
     10          1           0        0.235644    1.462183    1.001993
     11          1           0       -2.595092    0.088869   -0.775057
     12          1           0        2.398302   -0.079959    0.937656
 ---------------------------------------------------------------------
                    Distance matrix (angstroms):
                    1          2          3          4          5
     1  O    0.000000
     2  O    3.957938   0.000000
     3  O    3.748571   1.388553   0.000000
     4  C    1.411078   3.126758   3.174056   0.000000
     5  C    2.428285   2.819218   2.416278   1.498432   0.000000
     6  H    2.076890   3.933683   4.126437   1.100500   2.132560
     7  H    2.013598   2.504062   2.973875   1.090200   2.130141
     8  H    2.816667   2.033413   1.162976   2.260833   1.368653
     9  H    2.681485   3.769396   3.058658   2.200284   1.088776
    10  H    3.394857   2.737034   2.597992   2.193826   1.085413
    11  H    0.960533   4.660407   4.254674   1.944686   2.609889
    12  H    4.654353   0.965539   1.859625   3.627701   3.089959
                    6          7          8          9         10
     6  H    0.000000
     7  H    1.760519   0.000000
     8  H    3.214455   2.421414   0.000000
     9  H    2.669906   3.067243   1.951272   0.000000
    10  H    2.508636   2.547851   1.915592   1.815101   0.000000
    11  H    2.343737   2.817404   3.194248   2.469722   3.613442
    12  H    4.270009   3.087928   2.508763   4.020347   2.656959
                   11         12
    11  H    0.000000
    12  H    5.281654   0.000000
 Stoichiometry    C2H7O3(2)
 Framework group  C1[X(C2H7O3)]
 Deg. of freedom    30
 Full point group                 C1      NOp   1
 Largest Abelian subgroup         C1      NOp   1
 Largest concise Abelian subgroup C1      NOp   1
                         Standard orientation:                         
 ---------------------------------------------------------------------
 Center     Atomic      Atomic             Coordinates (Angstroms)
 Number     Number       Type             X           Y           Z
 ---------------------------------------------------------------------
      1          8           0       -1.998102   -0.609756   -0.495505
      2          8           0        1.866947   -0.638647    0.356455
      3          8           0        1.658636    0.174837   -0.749406
      4          6           0       -1.210659   -0.130600    0.572898
      5          6           0       -0.378405    1.059227    0.202811
      6          1           0       -1.837068    0.119398    1.442503
      7          1           0       -0.562665   -0.953986    0.874021
      8          1           0        0.562956    0.552238   -0.651597
      9          1           0       -0.887543    1.828023   -0.376123
     10          1           0        0.235644    1.462183    1.001993
     11          1           0       -2.595092    0.088869   -0.775057
     12          1           0        2.398302   -0.079959    0.937656
 ---------------------------------------------------------------------
 Rotational constants (GHZ):           8.6367788           2.2407515           2.1633140
 Leave Link  202 at Sat Jun 22 12:31:10 2019, MaxMem=   671088640 cpu:               0.2 elap:               0.0
 (Enter /shared/centos7/gaussian/g16/l301.exe)
 Standard basis: CC-pVTZ (5D, 7F)
 Ernie: Thresh=  0.10000D-02 Tol=  0.10000D-05 Strict=F.
 Ernie:  15 primitive shells out of 186 were deleted.
 There are   280 symmetry adapted cartesian basis functions of A   symmetry.
 There are   248 symmetry adapted basis functions of A   symmetry.
   248 basis functions,   379 primitive gaussians,   280 cartesian basis functions
    22 alpha electrons       21 beta electrons
       nuclear repulsion energy       187.9513320179 Hartrees.
 IExCor= 4336 DFT=T Ex+Corr=M062X ExCW=0 ScaHFX=  0.540000
 ScaDFX=  1.000000  1.000000  1.000000  1.000000 ScalE2=  1.000000  1.000000
 IRadAn=      5 IRanWt=     -1 IRanGd=            0 ICorTp=0 IEmpDi=  4
 NAtoms=   12 NActive=   12 NUniq=   12 SFac= 1.00D+00 NAtFMM=   60 NAOKFM=F Big=F
 Integral buffers will be    131072 words long.
 Raffenetti 2 integral format.
 Two-electron integral symmetry is turned on.
 Leave Link  301 at Sat Jun 22 12:31:11 2019, MaxMem=   671088640 cpu:               1.1 elap:               0.1
 (Enter /shared/centos7/gaussian/g16/l302.exe)
 NPDir=0 NMtPBC=     1 NCelOv=     1 NCel=       1 NClECP=     1 NCelD=      1
         NCelK=      1 NCelE2=     1 NClLst=     1 CellRange=     0.0.
 One-electron integrals computed using PRISM.
 One-electron integral symmetry used in STVInt
 NBasis=   248 RedAO= T EigKep=  8.40D-04  NBF=   248
 NBsUse=   248 1.00D-06 EigRej= -1.00D+00 NBFU=   248
 Precomputing XC quadrature grid using
 IXCGrd= 4 IRadAn=           5 IRanWt=          -1 IRanGd=           0 AccXCQ= 0.00D+00.
 Generated NRdTot=       0 NPtTot=           0 NUsed=           0 NTot=          32
 NSgBfM=   280   280   280   280   280 MxSgAt=    12 MxSgA2=    12.
 Leave Link  302 at Sat Jun 22 12:31:11 2019, MaxMem=   671088640 cpu:               4.7 elap:               0.3
 (Enter /shared/centos7/gaussian/g16/l303.exe)
 DipDrv:  MaxL=1.
 Leave Link  303 at Sat Jun 22 12:31:11 2019, MaxMem=   671088640 cpu:               0.6 elap:               0.1
 (Enter /shared/centos7/gaussian/g16/l401.exe)
 ExpMin= 1.03D-01 ExpMax= 1.53D+04 ExpMxC= 5.22D+02 IAcc=3 IRadAn=         5 AccDes= 0.00D+00
 Harris functional with IExCor= 1009 and IRadAn=       5 diagonalized for initial guess.
 HarFok:  IExCor= 1009 AccDes= 0.00D+00 IRadAn=         5 IDoV= 1 UseB2=F ITyADJ=14
 ICtDFT=  3500011 ScaDFX=  1.000000  1.000000  1.000000  1.000000
 FoFCou: FMM=F IPFlag=           0 FMFlag=      100000 FMFlg1=           0
         NFxFlg=           0 DoJE=T BraDBF=F KetDBF=T FulRan=T
         wScrn=  0.000000 ICntrl=       500 IOpCl=  0 I1Cent=   200000004 NGrid=           0
         NMat0=    1 NMatS0=      1 NMatT0=    0 NMatD0=    1 NMtDS0=    0 NMtDT0=    0
 Petite list used in FoFCou.
 Harris En= -305.774266756589    
 JPrj=0 DoOrth=F DoCkMO=F.
 Initial guess <Sx>= 0.0000 <Sy>= 0.0000 <Sz>= 0.5000 <S**2>= 0.7500 S= 0.5000
 Leave Link  401 at Sat Jun 22 12:31:12 2019, MaxMem=   671088640 cpu:              13.7 elap:               0.7
 (Enter /shared/centos7/gaussian/g16/l502.exe)
 Integral symmetry usage will be decided dynamically.
 UHF open shell SCF:
 Using DIIS extrapolation, IDIIS=  1040.
 NGot=   671088640 LenX=   670923676 LenY=   670844835
 Requested convergence on RMS density matrix=1.00D-08 within 900 cycles.
 Requested convergence on MAX density matrix=1.00D-06.
 Requested convergence on             energy=1.00D-06.
 No special actions if energy rises.
 Fock matrices will be formed incrementally for  20 cycles.
 Integral accuracy reduced to 1.0D-05 until final iterations.

 Cycle   1  Pass 0  IDiag  1:
 FoFJK:  IHMeth= 1 ICntrl=       0 DoSepK=F KAlg= 0 I1Cent=           0 FoldK=F
 IRaf= 970000000 NMat=       1 IRICut=       1 DoRegI=T DoRafI=F ISym2E= 0 IDoP0=0 IntGTp=1.
 FoFCou: FMM=F IPFlag=           0 FMFlag=      100000 FMFlg1=           0
         NFxFlg=           0 DoJE=F BraDBF=F KetDBF=F FulRan=T
         wScrn=  0.000000 ICntrl=         0 IOpCl=  1 I1Cent=           0 NGrid=           0
         NMat0=    1 NMatS0=      1 NMatT0=    0 NMatD0=    1 NMtDS0=    0 NMtDT0=    0
 Symmetry not used in FoFCou.
 E= -305.737340847517    
 DIIS: error= 1.98D-02 at cycle   1 NSaved=   1.
 NSaved= 1 IEnMin= 1 EnMin= -305.737340847517     IErMin= 1 ErrMin= 1.98D-02
 ErrMax= 1.98D-02  0.00D+00 EMaxC= 1.00D-01 BMatC= 8.21D-01 BMatP= 8.21D-01
 IDIUse=3 WtCom= 8.02D-01 WtEn= 1.98D-01
 Coeff-Com:  0.100D+01
 Coeff-En:   0.100D+01
 Coeff:      0.100D+01
 Gap=     0.339 Goal=   None    Shift=    0.000
 Gap=     0.332 Goal=   None    Shift=    0.000
 GapD=    0.332 DampG=1.000 DampE=0.500 DampFc=0.5000 IDamp=-1.
 Damping current iteration by 5.00D-01
 RMSDP=2.37D-03 MaxDP=1.61D-01              OVMax= 2.36D-01

 Cycle   2  Pass 0  IDiag  1:
 RMSU=  1.18D-03    CP:  1.00D+00
 E= -305.812866369335     Delta-E=       -0.075525521818 Rises=F Damp=T
 DIIS: error= 7.04D-03 at cycle   2 NSaved=   2.
 NSaved= 2 IEnMin= 2 EnMin= -305.812866369335     IErMin= 2 ErrMin= 7.04D-03
 ErrMax= 7.04D-03  0.00D+00 EMaxC= 1.00D-01 BMatC= 7.72D-02 BMatP= 8.21D-01
 IDIUse=3 WtCom= 9.30D-01 WtEn= 7.04D-02
 Coeff-Com: -0.101D+00 0.110D+01
 Coeff-En:   0.000D+00 0.100D+01
 Coeff:     -0.935D-01 0.109D+01
 Gap=     0.346 Goal=   None    Shift=    0.000
 Gap=     0.292 Goal=   None    Shift=    0.000
 RMSDP=5.53D-04 MaxDP=2.68D-02 DE=-7.55D-02 OVMax= 7.69D-02

 Cycle   3  Pass 0  IDiag  1:
 RMSU=  5.35D-04    CP:  1.01D+00  8.87D-01
 E= -305.886441085770     Delta-E=       -0.073574716435 Rises=F Damp=F
 DIIS: error= 3.27D-03 at cycle   3 NSaved=   3.
 NSaved= 3 IEnMin= 3 EnMin= -305.886441085770     IErMin= 3 ErrMin= 3.27D-03
 ErrMax= 3.27D-03  0.00D+00 EMaxC= 1.00D-01 BMatC= 1.73D-02 BMatP= 7.72D-02
 IDIUse=3 WtCom= 9.67D-01 WtEn= 3.27D-02
 Coeff-Com: -0.896D-01 0.333D+00 0.756D+00
 Coeff-En:   0.000D+00 0.000D+00 0.100D+01
 Coeff:     -0.867D-01 0.322D+00 0.764D+00
 Gap=     0.347 Goal=   None    Shift=    0.000
 Gap=     0.269 Goal=   None    Shift=    0.000
 RMSDP=2.11D-04 MaxDP=7.85D-03 DE=-7.36D-02 OVMax= 3.18D-02

 Cycle   4  Pass 0  IDiag  1:
 RMSU=  1.87D-04    CP:  1.00D+00  9.53D-01  8.93D-01
 E= -305.889338939891     Delta-E=       -0.002897854121 Rises=F Damp=F
 DIIS: error= 1.43D-03 at cycle   4 NSaved=   4.
 NSaved= 4 IEnMin= 4 EnMin= -305.889338939891     IErMin= 4 ErrMin= 1.43D-03
 ErrMax= 1.43D-03  0.00D+00 EMaxC= 1.00D-01 BMatC= 4.49D-03 BMatP= 1.73D-02
 IDIUse=3 WtCom= 9.86D-01 WtEn= 1.43D-02
 Coeff-Com: -0.300D-01 0.696D-01 0.370D+00 0.590D+00
 Coeff-En:   0.000D+00 0.000D+00 0.588D-03 0.999D+00
 Coeff:     -0.296D-01 0.686D-01 0.365D+00 0.596D+00
 Gap=     0.343 Goal=   None    Shift=    0.000
 Gap=     0.272 Goal=   None    Shift=    0.000
 RMSDP=8.49D-05 MaxDP=3.72D-03 DE=-2.90D-03 OVMax= 1.03D-02

 Cycle   5  Pass 0  IDiag  1:
 RMSU=  6.32D-05    CP:  1.00D+00  9.50D-01  9.81D-01  8.31D-01
 E= -305.890209780120     Delta-E=       -0.000870840228 Rises=F Damp=F
 DIIS: error= 5.24D-04 at cycle   5 NSaved=   5.
 NSaved= 5 IEnMin= 5 EnMin= -305.890209780120     IErMin= 5 ErrMin= 5.24D-04
 ErrMax= 5.24D-04  0.00D+00 EMaxC= 1.00D-01 BMatC= 3.81D-04 BMatP= 4.49D-03
 IDIUse=3 WtCom= 9.95D-01 WtEn= 5.24D-03
 Coeff-Com: -0.126D-02-0.916D-02 0.673D-01 0.217D+00 0.726D+00
 Coeff-En:   0.000D+00 0.000D+00 0.000D+00 0.000D+00 0.100D+01
 Coeff:     -0.125D-02-0.911D-02 0.670D-01 0.216D+00 0.728D+00
 Gap=     0.345 Goal=   None    Shift=    0.000
 Gap=     0.273 Goal=   None    Shift=    0.000
 RMSDP=4.35D-05 MaxDP=1.57D-03 DE=-8.71D-04 OVMax= 7.66D-03

 Cycle   6  Pass 0  IDiag  1:
 RMSU=  2.67D-05    CP:  1.00D+00  9.43D-01  1.01D+00  9.73D-01  1.19D+00
 E= -305.890361211367     Delta-E=       -0.000151431247 Rises=F Damp=F
 DIIS: error= 4.43D-04 at cycle   6 NSaved=   6.
 NSaved= 6 IEnMin= 6 EnMin= -305.890361211367     IErMin= 6 ErrMin= 4.43D-04
 ErrMax= 4.43D-04  0.00D+00 EMaxC= 1.00D-01 BMatC= 1.25D-04 BMatP= 3.81D-04
 IDIUse=3 WtCom= 9.96D-01 WtEn= 4.43D-03
 Coeff-Com:  0.834D-02-0.236D-01-0.717D-01-0.854D-01 0.325D+00 0.847D+00
 Coeff-En:   0.000D+00 0.000D+00 0.000D+00 0.000D+00 0.000D+00 0.100D+01
 Coeff:      0.830D-02-0.235D-01-0.714D-01-0.850D-01 0.324D+00 0.848D+00
 Gap=     0.346 Goal=   None    Shift=    0.000
 Gap=     0.274 Goal=   None    Shift=    0.000
 RMSDP=3.54D-05 MaxDP=1.17D-03 DE=-1.51D-04 OVMax= 6.61D-03

 Cycle   7  Pass 0  IDiag  1:
 RMSU=  1.59D-05    CP:  1.00D+00  9.39D-01  1.03D+00  1.07D+00  1.55D+00
                    CP:  1.16D+00
 E= -305.890437205952     Delta-E=       -0.000075994585 Rises=F Damp=F
 DIIS: error= 1.47D-04 at cycle   7 NSaved=   7.
 NSaved= 7 IEnMin= 7 EnMin= -305.890437205952     IErMin= 7 ErrMin= 1.47D-04
 ErrMax= 1.47D-04  0.00D+00 EMaxC= 1.00D-01 BMatC= 2.88D-05 BMatP= 1.25D-04
 IDIUse=3 WtCom= 9.99D-01 WtEn= 1.47D-03
 Coeff-Com:  0.316D-02-0.516D-02-0.416D-01-0.103D+00-0.110D+00 0.344D+00
 Coeff-Com:  0.912D+00
 Coeff-En:   0.000D+00 0.000D+00 0.000D+00 0.000D+00 0.000D+00 0.000D+00
 Coeff-En:   0.100D+01
 Coeff:      0.316D-02-0.515D-02-0.415D-01-0.103D+00-0.109D+00 0.343D+00
 Coeff:      0.912D+00
 Gap=     0.346 Goal=   None    Shift=    0.000
 Gap=     0.276 Goal=   None    Shift=    0.000
 RMSDP=2.25D-05 MaxDP=6.06D-04 DE=-7.60D-05 OVMax= 4.83D-03

 Cycle   8  Pass 0  IDiag  1:
 RMSU=  6.84D-06    CP:  1.00D+00  9.38D-01  1.04D+00  1.12D+00  1.77D+00
                    CP:  1.53D+00  1.28D+00
 E= -305.890459465256     Delta-E=       -0.000022259304 Rises=F Damp=F
 DIIS: error= 6.02D-05 at cycle   8 NSaved=   8.
 NSaved= 8 IEnMin= 8 EnMin= -305.890459465256     IErMin= 8 ErrMin= 6.02D-05
 ErrMax= 6.02D-05  0.00D+00 EMaxC= 1.00D-01 BMatC= 2.53D-06 BMatP= 2.88D-05
 IDIUse=1 WtCom= 1.00D+00 WtEn= 0.00D+00
 Coeff-Com: -0.190D-02 0.435D-02 0.215D-01 0.331D-01-0.269D-02-0.191D+00
 Coeff-Com: -0.220D+00 0.136D+01
 Coeff:     -0.190D-02 0.435D-02 0.215D-01 0.331D-01-0.269D-02-0.191D+00
 Coeff:     -0.220D+00 0.136D+01
 Gap=     0.346 Goal=   None    Shift=    0.000
 Gap=     0.276 Goal=   None    Shift=    0.000
 RMSDP=1.01D-05 MaxDP=3.14D-04 DE=-2.23D-05 OVMax= 2.41D-03

 Cycle   9  Pass 0  IDiag  1:
 RMSU=  3.07D-06    CP:  1.00D+00  9.38D-01  1.05D+00  1.13D+00  1.84D+00
                    CP:  1.66D+00  1.59D+00  1.74D+00
 E= -305.890463636266     Delta-E=       -0.000004171010 Rises=F Damp=F
 DIIS: error= 3.28D-05 at cycle   9 NSaved=   9.
 NSaved= 9 IEnMin= 9 EnMin= -305.890463636266     IErMin= 9 ErrMin= 3.28D-05
 ErrMax= 3.28D-05  0.00D+00 EMaxC= 1.00D-01 BMatC= 6.56D-07 BMatP= 2.53D-06
 IDIUse=1 WtCom= 1.00D+00 WtEn= 0.00D+00
 Coeff-Com: -0.856D-03 0.164D-02 0.124D-01 0.246D-01 0.234D-01-0.108D+00
 Coeff-Com: -0.211D+00 0.302D+00 0.956D+00
 Coeff:     -0.856D-03 0.164D-02 0.124D-01 0.246D-01 0.234D-01-0.108D+00
 Coeff:     -0.211D+00 0.302D+00 0.956D+00
 Gap=     0.346 Goal=   None    Shift=    0.000
 Gap=     0.276 Goal=   None    Shift=    0.000
 RMSDP=4.41D-06 MaxDP=1.56D-04 DE=-4.17D-06 OVMax= 1.07D-03

 Initial convergence to 1.0D-05 achieved.  Increase integral accuracy.
 Cycle  10  Pass 1  IDiag  1:
 E= -305.890480317731     Delta-E=       -0.000016681465 Rises=F Damp=F
 DIIS: error= 1.95D-05 at cycle   1 NSaved=   1.
 NSaved= 1 IEnMin= 1 EnMin= -305.890480317731     IErMin= 1 ErrMin= 1.95D-05
 ErrMax= 1.95D-05  0.00D+00 EMaxC= 1.00D-01 BMatC= 9.99D-07 BMatP= 9.99D-07
 IDIUse=1 WtCom= 1.00D+00 WtEn= 0.00D+00
 Coeff-Com:  0.100D+01
 Coeff:      0.100D+01
 Gap=     0.346 Goal=   None    Shift=    0.000
 Gap=     0.276 Goal=   None    Shift=    0.000
 RMSDP=4.41D-06 MaxDP=1.56D-04 DE=-1.67D-05 OVMax= 3.67D-04

 Cycle  11  Pass 1  IDiag  1:
 RMSU=  5.11D-06    CP:  1.00D+00
 E= -305.890480629032     Delta-E=       -0.000000311301 Rises=F Damp=F
 DIIS: error= 1.24D-05 at cycle   2 NSaved=   2.
 NSaved= 2 IEnMin= 2 EnMin= -305.890480629032     IErMin= 2 ErrMin= 1.24D-05
 ErrMax= 1.24D-05  0.00D+00 EMaxC= 1.00D-01 BMatC= 1.27D-07 BMatP= 9.99D-07
 IDIUse=1 WtCom= 1.00D+00 WtEn= 0.00D+00
 Coeff-Com:  0.691D-01 0.931D+00
 Coeff:      0.691D-01 0.931D+00
 Gap=     0.346 Goal=   None    Shift=    0.000
 Gap=     0.276 Goal=   None    Shift=    0.000
 RMSDP=1.23D-06 MaxDP=3.79D-05 DE=-3.11D-07 OVMax= 2.63D-04

 Cycle  12  Pass 1  IDiag  1:
 RMSU=  1.03D-06    CP:  1.00D+00  1.13D+00
 E= -305.890480711333     Delta-E=       -0.000000082301 Rises=F Damp=F
 DIIS: error= 7.59D-06 at cycle   3 NSaved=   3.
 NSaved= 3 IEnMin= 3 EnMin= -305.890480711333     IErMin= 3 ErrMin= 7.59D-06
 ErrMax= 7.59D-06  0.00D+00 EMaxC= 1.00D-01 BMatC= 1.07D-07 BMatP= 1.27D-07
 IDIUse=1 WtCom= 1.00D+00 WtEn= 0.00D+00
 Coeff-Com: -0.640D-01 0.483D+00 0.581D+00
 Coeff:     -0.640D-01 0.483D+00 0.581D+00
 Gap=     0.346 Goal=   None    Shift=    0.000
 Gap=     0.276 Goal=   None    Shift=    0.000
 RMSDP=6.21D-07 MaxDP=3.08D-05 DE=-8.23D-08 OVMax= 1.27D-04

 Cycle  13  Pass 1  IDiag  1:
 RMSU=  5.37D-07    CP:  1.00D+00  1.18D+00  1.16D+00
 E= -305.890480757714     Delta-E=       -0.000000046382 Rises=F Damp=F
 DIIS: error= 6.39D-06 at cycle   4 NSaved=   4.
 NSaved= 4 IEnMin= 4 EnMin= -305.890480757714     IErMin= 4 ErrMin= 6.39D-06
 ErrMax= 6.39D-06  0.00D+00 EMaxC= 1.00D-01 BMatC= 1.65D-08 BMatP= 1.07D-07
 IDIUse=1 WtCom= 1.00D+00 WtEn= 0.00D+00
 Coeff-Com: -0.104D-01-0.239D+00-0.117D+00 0.137D+01
 Coeff:     -0.104D-01-0.239D+00-0.117D+00 0.137D+01
 Gap=     0.346 Goal=   None    Shift=    0.000
 Gap=     0.276 Goal=   None    Shift=    0.000
 RMSDP=8.56D-07 MaxDP=3.17D-05 DE=-4.64D-08 OVMax= 2.26D-04

 Cycle  14  Pass 1  IDiag  1:
 RMSU=  2.63D-07    CP:  1.00D+00  1.24D+00  1.75D+00  1.84D+00
 E= -305.890480792232     Delta-E=       -0.000000034518 Rises=F Damp=F
 DIIS: error= 2.90D-06 at cycle   5 NSaved=   5.
 NSaved= 5 IEnMin= 5 EnMin= -305.890480792232     IErMin= 5 ErrMin= 2.90D-06
 ErrMax= 2.90D-06  0.00D+00 EMaxC= 1.00D-01 BMatC= 1.27D-08 BMatP= 1.65D-08
 IDIUse=1 WtCom= 1.00D+00 WtEn= 0.00D+00
 Coeff-Com:  0.293D-01-0.438D+00-0.432D+00 0.993D+00 0.848D+00
 Coeff:      0.293D-01-0.438D+00-0.432D+00 0.993D+00 0.848D+00
 Gap=     0.346 Goal=   None    Shift=    0.000
 Gap=     0.276 Goal=   None    Shift=    0.000
 RMSDP=7.26D-07 MaxDP=3.23D-05 DE=-3.45D-08 OVMax= 1.91D-04

 Cycle  15  Pass 1  IDiag  1:
 RMSU=  1.51D-07    CP:  1.00D+00  1.28D+00  2.24D+00  2.67D+00  1.37D+00
 E= -305.890480806351     Delta-E=       -0.000000014119 Rises=F Damp=F
 DIIS: error= 8.85D-07 at cycle   6 NSaved=   6.
 NSaved= 6 IEnMin= 6 EnMin= -305.890480806351     IErMin= 6 ErrMin= 8.85D-07
 ErrMax= 8.85D-07  0.00D+00 EMaxC= 1.00D-01 BMatC= 1.00D-09 BMatP= 1.27D-08
 IDIUse=1 WtCom= 1.00D+00 WtEn= 0.00D+00
 Coeff-Com:  0.120D-01-0.130D+00-0.146D+00 0.191D+00 0.310D+00 0.762D+00
 Coeff:      0.120D-01-0.130D+00-0.146D+00 0.191D+00 0.310D+00 0.762D+00
 Gap=     0.346 Goal=   None    Shift=    0.000
 Gap=     0.276 Goal=   None    Shift=    0.000
 RMSDP=1.51D-07 MaxDP=6.25D-06 DE=-1.41D-08 OVMax= 3.89D-05

 Cycle  16  Pass 1  IDiag  1:
 RMSU=  5.13D-08    CP:  1.00D+00  1.29D+00  2.33D+00  2.83D+00  1.57D+00
                    CP:  1.20D+00
 E= -305.890480807118     Delta-E=       -0.000000000766 Rises=F Damp=F
 DIIS: error= 4.66D-07 at cycle   7 NSaved=   7.
 NSaved= 7 IEnMin= 7 EnMin= -305.890480807118     IErMin= 7 ErrMin= 4.66D-07
 ErrMax= 4.66D-07  0.00D+00 EMaxC= 1.00D-01 BMatC= 2.68D-10 BMatP= 1.00D-09
 IDIUse=1 WtCom= 1.00D+00 WtEn= 0.00D+00
 Coeff-Com: -0.253D-02 0.668D-01 0.578D-01-0.203D+00-0.992D-01 0.361D+00
 Coeff-Com:  0.819D+00
 Coeff:     -0.253D-02 0.668D-01 0.578D-01-0.203D+00-0.992D-01 0.361D+00
 Coeff:      0.819D+00
 Gap=     0.346 Goal=   None    Shift=    0.000
 Gap=     0.276 Goal=   None    Shift=    0.000
 RMSDP=7.20D-08 MaxDP=3.15D-06 DE=-7.66D-10 OVMax= 1.87D-05

 Cycle  17  Pass 1  IDiag  1:
 RMSU=  2.11D-08    CP:  1.00D+00  1.29D+00  2.36D+00  2.90D+00  1.70D+00
                    CP:  1.40D+00  1.03D+00
 E= -305.890480807263     Delta-E=       -0.000000000146 Rises=F Damp=F
 DIIS: error= 9.36D-08 at cycle   8 NSaved=   8.
 NSaved= 8 IEnMin= 8 EnMin= -305.890480807263     IErMin= 8 ErrMin= 9.36D-08
 ErrMax= 9.36D-08  0.00D+00 EMaxC= 1.00D-01 BMatC= 1.48D-11 BMatP= 2.68D-10
 IDIUse=1 WtCom= 1.00D+00 WtEn= 0.00D+00
 Coeff-Com: -0.160D-02 0.225D-01 0.227D-01-0.450D-01-0.450D-01-0.487D-01
 Coeff-Com:  0.113D+00 0.982D+00
 Coeff:     -0.160D-02 0.225D-01 0.227D-01-0.450D-01-0.450D-01-0.487D-01
 Coeff:      0.113D+00 0.982D+00
 Gap=     0.346 Goal=   None    Shift=    0.000
 Gap=     0.276 Goal=   None    Shift=    0.000
 RMSDP=1.65D-08 MaxDP=7.20D-07 DE=-1.46D-10 OVMax= 3.41D-06

 Cycle  18  Pass 1  IDiag  1:
 RMSU=  5.92D-09    CP:  1.00D+00  1.29D+00  2.37D+00  2.90D+00  1.73D+00
                    CP:  1.45D+00  1.18D+00  1.32D+00
 E= -305.890480807270     Delta-E=       -0.000000000007 Rises=F Damp=F
 DIIS: error= 3.82D-08 at cycle   9 NSaved=   9.
 NSaved= 9 IEnMin= 9 EnMin= -305.890480807270     IErMin= 9 ErrMin= 3.82D-08
 ErrMax= 3.82D-08  0.00D+00 EMaxC= 1.00D-01 BMatC= 2.20D-12 BMatP= 1.48D-11
 IDIUse=1 WtCom= 1.00D+00 WtEn= 0.00D+00
 Coeff-Com:  0.767D-04-0.535D-02-0.397D-02 0.206D-01 0.581D-02-0.655D-01
 Coeff-Com: -0.858D-01 0.203D+00 0.931D+00
 Coeff:      0.767D-04-0.535D-02-0.397D-02 0.206D-01 0.581D-02-0.655D-01
 Coeff:     -0.858D-01 0.203D+00 0.931D+00
 Gap=     0.346 Goal=   None    Shift=    0.000
 Gap=     0.276 Goal=   None    Shift=    0.000
 RMSDP=5.26D-09 MaxDP=2.39D-07 DE=-6.71D-12 OVMax= 9.31D-07

 SCF Done:  E(UM062X) =  -305.890480807     A.U. after   18 cycles
            NFock= 18  Conv=0.53D-08     -V/T= 2.0050
 <Sx>= 0.0000 <Sy>= 0.0000 <Sz>= 0.5000 <S**2>= 0.7599 S= 0.5049
 <L.S>= 0.000000000000E+00
 KE= 3.043580885711D+02 PE=-1.095257651203D+03 EE= 2.970577498069D+02
 Annihilation of the first spin contaminant:
 S**2 before annihilation     0.7599,   after     0.7500
 Leave Link  502 at Sat Jun 22 12:31:49 2019, MaxMem=   671088640 cpu:             754.0 elap:              37.8
 (Enter /shared/centos7/gaussian/g16/l801.exe)
 DoSCS=F DFT=T ScalE2(SS,OS)=  1.000000  1.000000
 Range of M.O.s used for correlation:     1   248
 NBasis=   248 NAE=    22 NBE=    21 NFC=     0 NFV=     0
 NROrb=    248 NOA=    22 NOB=    21 NVA=   226 NVB=   227
 Leave Link  801 at Sat Jun 22 12:31:49 2019, MaxMem=   671088640 cpu:               0.7 elap:               0.1
 (Enter /shared/centos7/gaussian/g16/l1101.exe)
 Using compressed storage, NAtomX=    12.
 Will process     13 centers per pass.
 Leave Link 1101 at Sat Jun 22 12:31:50 2019, MaxMem=   671088640 cpu:               6.6 elap:               0.4
 (Enter /shared/centos7/gaussian/g16/l1102.exe)
 Symmetrizing basis deriv contribution to polar:
 IMax=3 JMax=2 DiffMx= 0.00D+00
 Leave Link 1102 at Sat Jun 22 12:31:50 2019, MaxMem=   671088640 cpu:               0.8 elap:               0.1
 (Enter /shared/centos7/gaussian/g16/l1110.exe)
 Forming Gx(P) for the SCF density, NAtomX=    12.
 Integral derivatives from FoFJK, PRISM(SPDF).
 Do as many integral derivatives as possible in FoFJK.
 G2DrvN: MDV=     671087640.
 G2DrvN: will do    13 centers at a time, making    1 passes.
 Calling FoFCou, ICntrl=  3107 FMM=F I1Cent=   0 AccDes= 0.00D+00.
 FoFJK:  IHMeth= 1 ICntrl=    3107 DoSepK=F KAlg= 0 I1Cent=           0 FoldK=F
 IRaf=         0 NMat=       1 IRICut=       1 DoRegI=T DoRafI=F ISym2E= 0 IDoP0=0 IntGTp=1.
 FoFCou: FMM=F IPFlag=           0 FMFlag=      100000 FMFlg1=           0
         NFxFlg=           0 DoJE=F BraDBF=F KetDBF=F FulRan=T
         wScrn=  0.000000 ICntrl=      3107 IOpCl=  1 I1Cent=           0 NGrid=           0
         NMat0=    1 NMatS0=      1 NMatT0=    0 NMatD0=    1 NMtDS0=    0 NMtDT0=    0
 Symmetry not used in FoFCou.
 End of G2Drv F.D. properties file   721 does not exist.
 End of G2Drv F.D. properties file   722 does not exist.
 End of G2Drv F.D. properties file   788 does not exist.
 Leave Link 1110 at Sat Jun 22 12:32:57 2019, MaxMem=   671088640 cpu:            1347.8 elap:              67.5
 (Enter /shared/centos7/gaussian/g16/l1002.exe)
 Minotr:  UHF open shell wavefunction.
          IDoAtm=111111111111
          Direct CPHF calculation.
          Differentiating once with respect to nuclear coordinates.
          Requested convergence is 1.0D-08 RMS, and 1.0D-07 maximum.
          Secondary convergence is 1.0D-12 RMS, and 1.0D-12 maximum.
          NewPWx=T KeepS1=F KeepF1=F KeepIn=T MapXYZ=F SortEE=F KeepMc=T.
         3584 words used for storage of precomputed grid.
 Two-electron integrals replicated using symmetry.
          MDV=     671088640 using IRadAn=       1.
          Solving linear equations simultaneously, MaxMat=     380.
 FoF2E skips out because all densities are zero.
 CalDSu exits because no D1Ps are significant.
 FoFJK:  IHMeth= 1 ICntrl=       0 DoSepK=F KAlg= 0 I1Cent=           0 FoldK=F
 IRaf= 960000000 NMat=      36 IRICut=      90 DoRegI=T DoRafI=T ISym2E= 2 IDoP0=3 IntGTp=3.
 FoFCou: FMM=F IPFlag=           0 FMFlag=      100000 FMFlg1=           0
         NFxFlg=           0 DoJE=F BraDBF=F KetDBF=F FulRan=T
         wScrn=  0.000000 ICntrl=         0 IOpCl=  1 I1Cent=           0 NGrid=           0
         NMat0=   36 NMatS0=     36 NMatT0=    0 NMatD0=   36 NMtDS0=    0 NMtDT0=    0
 Integrals replicated using symmetry in FoFCou.
 Raff kept on since  94.60% of shell-pairs survive, threshold=   0.20 IRatSp=95.
          There are    39 degrees of freedom in the 1st order CPHF.  IDoFFX=6 NUNeed=     0.
     33 vectors produced by pass  0 Test12= 2.50D-14 2.56D-09 XBig12= 1.42D-01 1.40D-01.
 AX will form    33 AO Fock derivatives at one time.
     33 vectors produced by pass  1 Test12= 2.50D-14 2.56D-09 XBig12= 1.33D-02 3.08D-02.
     33 vectors produced by pass  2 Test12= 2.50D-14 2.56D-09 XBig12= 8.77D-04 5.68D-03.
     33 vectors produced by pass  3 Test12= 2.50D-14 2.56D-09 XBig12= 2.18D-05 6.68D-04.
     33 vectors produced by pass  4 Test12= 2.50D-14 2.56D-09 XBig12= 3.12D-07 8.07D-05.
     33 vectors produced by pass  5 Test12= 2.50D-14 2.56D-09 XBig12= 4.39D-09 8.51D-06.
     33 vectors produced by pass  6 Test12= 2.50D-14 2.56D-09 XBig12= 4.75D-11 9.16D-07.
     17 vectors produced by pass  7 Test12= 2.50D-14 2.56D-09 XBig12= 4.45D-13 8.48D-08.
      3 vectors produced by pass  8 Test12= 2.50D-14 2.56D-09 XBig12= 3.36D-15 4.97D-09.
 InvSVY:  IOpt=1 It=  1 EMax= 1.55D-15
 Solved reduced A of dimension   251 with    33 vectors.
 End of Minotr F.D. properties file   721 does not exist.
 End of Minotr F.D. properties file   722 does not exist.
 End of Minotr F.D. properties file   788 does not exist.
 Leave Link 1002 at Sat Jun 22 12:34:52 2019, MaxMem=   671088640 cpu:            2280.7 elap:             114.1
 (Enter /shared/centos7/gaussian/g16/l601.exe)
 Copying SCF densities to generalized density rwf, IOpCl= 1 IROHF=0.

 **********************************************************************

            Population analysis using the SCF density.

 **********************************************************************

 Orbital symmetries:
 Alpha Orbitals:
       Occupied  (A) (A) (A) (A) (A) (A) (A) (A) (A) (A) (A) (A)
                 (A) (A) (A) (A) (A) (A) (A) (A) (A) (A)
       Virtual   (A) (A) (A) (A) (A) (A) (A) (A) (A) (A) (A) (A)
                 (A) (A) (A) (A) (A) (A) (A) (A) (A) (A) (A) (A)
                 (A) (A) (A) (A) (A) (A) (A) (A) (A) (A) (A) (A)
                 (A) (A) (A) (A) (A) (A) (A) (A) (A) (A) (A) (A)
                 (A) (A) (A) (A) (A) (A) (A) (A) (A) (A) (A) (A)
                 (A) (A) (A) (A) (A) (A) (A) (A) (A) (A) (A) (A)
                 (A) (A) (A) (A) (A) (A) (A) (A) (A) (A) (A) (A)
                 (A) (A) (A) (A) (A) (A) (A) (A) (A) (A) (A) (A)
                 (A) (A) (A) (A) (A) (A) (A) (A) (A) (A) (A) (A)
                 (A) (A) (A) (A) (A) (A) (A) (A) (A) (A) (A) (A)
                 (A) (A) (A) (A) (A) (A) (A) (A) (A) (A) (A) (A)
                 (A) (A) (A) (A) (A) (A) (A) (A) (A) (A) (A) (A)
                 (A) (A) (A) (A) (A) (A) (A) (A) (A) (A) (A) (A)
                 (A) (A) (A) (A) (A) (A) (A) (A) (A) (A) (A) (A)
                 (A) (A) (A) (A) (A) (A) (A) (A) (A) (A) (A) (A)
                 (A) (A) (A) (A) (A) (A) (A) (A) (A) (A) (A) (A)
                 (A) (A) (A) (A) (A) (A) (A) (A) (A) (A) (A) (A)
                 (A) (A) (A) (A) (A) (A) (A) (A) (A) (A) (A) (A)
                 (A) (A) (A) (A) (A) (A) (A) (A) (A) (A)
 Beta  Orbitals:
       Occupied  (A) (A) (A) (A) (A) (A) (A) (A) (A) (A) (A) (A)
                 (A) (A) (A) (A) (A) (A) (A) (A) (A)
       Virtual   (A) (A) (A) (A) (A) (A) (A) (A) (A) (A) (A) (A)
                 (A) (A) (A) (A) (A) (A) (A) (A) (A) (A) (A) (A)
                 (A) (A) (A) (A) (A) (A) (A) (A) (A) (A) (A) (A)
                 (A) (A) (A) (A) (A) (A) (A) (A) (A) (A) (A) (A)
                 (A) (A) (A) (A) (A) (A) (A) (A) (A) (A) (A) (A)
                 (A) (A) (A) (A) (A) (A) (A) (A) (A) (A) (A) (A)
                 (A) (A) (A) (A) (A) (A) (A) (A) (A) (A) (A) (A)
                 (A) (A) (A) (A) (A) (A) (A) (A) (A) (A) (A) (A)
                 (A) (A) (A) (A) (A) (A) (A) (A) (A) (A) (A) (A)
                 (A) (A) (A) (A) (A) (A) (A) (A) (A) (A) (A) (A)
                 (A) (A) (A) (A) (A) (A) (A) (A) (A) (A) (A) (A)
                 (A) (A) (A) (A) (A) (A) (A) (A) (A) (A) (A) (A)
                 (A) (A) (A) (A) (A) (A) (A) (A) (A) (A) (A) (A)
                 (A) (A) (A) (A) (A) (A) (A) (A) (A) (A) (A) (A)
                 (A) (A) (A) (A) (A) (A) (A) (A) (A) (A) (A) (A)
                 (A) (A) (A) (A) (A) (A) (A) (A) (A) (A) (A) (A)
                 (A) (A) (A) (A) (A) (A) (A) (A) (A) (A) (A) (A)
                 (A) (A) (A) (A) (A) (A) (A) (A) (A) (A) (A) (A)
                 (A) (A) (A) (A) (A) (A) (A) (A) (A) (A) (A)
 The electronic state is 2-A.
 Alpha  occ. eigenvalues --  -19.69338 -19.68906 -19.62448 -10.59308 -10.55952
 Alpha  occ. eigenvalues --   -1.27421  -1.15182  -0.99557  -0.86249  -0.72430
 Alpha  occ. eigenvalues --   -0.62815  -0.60296  -0.57678  -0.54456  -0.52406
 Alpha  occ. eigenvalues --   -0.52112  -0.46173  -0.41867  -0.40969  -0.37829
 Alpha  occ. eigenvalues --   -0.36598  -0.29533
 Alpha virt. eigenvalues --    0.05115   0.06524   0.10328   0.11112   0.13011
 Alpha virt. eigenvalues --    0.15088   0.15981   0.19330   0.22351   0.23610
 Alpha virt. eigenvalues --    0.27763   0.32261   0.35785   0.38249   0.40461
 Alpha virt. eigenvalues --    0.42903   0.44257   0.45110   0.46807   0.47935
 Alpha virt. eigenvalues --    0.48546   0.49164   0.50893   0.54966   0.56524
 Alpha virt. eigenvalues --    0.57702   0.59880   0.60492   0.62729   0.67418
 Alpha virt. eigenvalues --    0.69318   0.70522   0.72350   0.74430   0.75999
 Alpha virt. eigenvalues --    0.77436   0.81720   0.84849   0.85873   0.92169
 Alpha virt. eigenvalues --    0.93221   0.94721   0.98317   1.00449   1.02919
 Alpha virt. eigenvalues --    1.07203   1.08576   1.10415   1.12235   1.14686
 Alpha virt. eigenvalues --    1.17117   1.19240   1.21273   1.23641   1.24233
 Alpha virt. eigenvalues --    1.29297   1.34001   1.35015   1.35288   1.37210
 Alpha virt. eigenvalues --    1.38728   1.42030   1.43223   1.50634   1.51197
 Alpha virt. eigenvalues --    1.56924   1.57455   1.58971   1.62233   1.71583
 Alpha virt. eigenvalues --    1.80044   1.89503   1.91849   1.92133   1.98335
 Alpha virt. eigenvalues --    1.99514   2.02714   2.09802   2.10567   2.14356
 Alpha virt. eigenvalues --    2.17822   2.21225   2.28939   2.32286   2.35364
 Alpha virt. eigenvalues --    2.37304   2.42079   2.45057   2.50594   2.54258
 Alpha virt. eigenvalues --    2.57942   2.61709   2.67965   2.68298   2.74026
 Alpha virt. eigenvalues --    2.79630   2.83525   2.85792   2.87574   2.92789
 Alpha virt. eigenvalues --    2.93750   2.95559   2.97394   3.00609   3.01327
 Alpha virt. eigenvalues --    3.06580   3.08065   3.12134   3.16060   3.18380
 Alpha virt. eigenvalues --    3.18939   3.22924   3.24834   3.27287   3.28510
 Alpha virt. eigenvalues --    3.30201   3.32107   3.36954   3.40809   3.42591
 Alpha virt. eigenvalues --    3.44257   3.46144   3.47488   3.48908   3.51745
 Alpha virt. eigenvalues --    3.55389   3.58354   3.61392   3.64776   3.67660
 Alpha virt. eigenvalues --    3.70457   3.72672   3.74017   3.77105   3.79012
 Alpha virt. eigenvalues --    3.80959   3.83298   3.85162   3.86043   3.87804
 Alpha virt. eigenvalues --    3.88242   3.91017   3.94714   3.95988   3.98939
 Alpha virt. eigenvalues --    4.00531   4.03277   4.04702   4.08368   4.09889
 Alpha virt. eigenvalues --    4.10721   4.16348   4.19301   4.21728   4.22538
 Alpha virt. eigenvalues --    4.22837   4.28288   4.35590   4.36132   4.40649
 Alpha virt. eigenvalues --    4.43181   4.45596   4.48006   4.64064   4.68221
 Alpha virt. eigenvalues --    4.70569   4.75725   4.77050   4.80451   4.84908
 Alpha virt. eigenvalues --    4.85664   4.88605   4.92178   4.93789   5.00085
 Alpha virt. eigenvalues --    5.01385   5.02322   5.08290   5.11501   5.14512
 Alpha virt. eigenvalues --    5.17538   5.23004   5.25313   5.32559   5.36319
 Alpha virt. eigenvalues --    5.41591   5.45120   5.54912   5.57205   5.73810
 Alpha virt. eigenvalues --    5.75701   5.76970   5.83744   5.94987   5.97094
 Alpha virt. eigenvalues --    6.09362   6.18756   6.19331   6.32687   6.35973
 Alpha virt. eigenvalues --    6.37722   6.46167   6.48071   6.54875   6.57407
 Alpha virt. eigenvalues --    6.62218   6.64417   6.69194   6.69816   6.71583
 Alpha virt. eigenvalues --    6.74496   6.84009   6.86770   6.88554   6.96266
 Alpha virt. eigenvalues --    7.12905   7.13559   7.18963   7.38346   7.43974
 Alpha virt. eigenvalues --    7.58741   9.90470  11.21890  11.79798  12.07537
 Alpha virt. eigenvalues --   12.82540
  Beta  occ. eigenvalues --  -19.69200 -19.67956 -19.62451 -10.59330 -10.55411
  Beta  occ. eigenvalues --   -1.25796  -1.15154  -0.97184  -0.84756  -0.71182
  Beta  occ. eigenvalues --   -0.61229  -0.58755  -0.56014  -0.53668  -0.51439
  Beta  occ. eigenvalues --   -0.49777  -0.45524  -0.41084  -0.38262  -0.36189
  Beta  occ. eigenvalues --   -0.35206
  Beta virt. eigenvalues --   -0.07631   0.05250   0.06553   0.10397   0.10983
  Beta virt. eigenvalues --    0.13415   0.15362   0.16222   0.19415   0.23020
  Beta virt. eigenvalues --    0.23965   0.28032   0.32425   0.35951   0.38330
  Beta virt. eigenvalues --    0.40828   0.43087   0.44715   0.46110   0.47409
  Beta virt. eigenvalues --    0.48700   0.49221   0.50060   0.51588   0.55248
  Beta virt. eigenvalues --    0.56782   0.58659   0.59944   0.60664   0.63340
  Beta virt. eigenvalues --    0.67734   0.69416   0.70804   0.72567   0.74843
  Beta virt. eigenvalues --    0.76185   0.77496   0.81813   0.84905   0.86151
  Beta virt. eigenvalues --    0.92540   0.93509   0.94899   0.98478   1.00655
  Beta virt. eigenvalues --    1.03094   1.07469   1.08784   1.10419   1.12357
  Beta virt. eigenvalues --    1.15253   1.17660   1.20040   1.21637   1.23861
  Beta virt. eigenvalues --    1.24565   1.29597   1.34076   1.35819   1.35894
  Beta virt. eigenvalues --    1.37430   1.38811   1.42436   1.43469   1.50759
  Beta virt. eigenvalues --    1.51590   1.57672   1.58476   1.59531   1.62750
  Beta virt. eigenvalues --    1.72904   1.80856   1.89695   1.92245   1.92727
  Beta virt. eigenvalues --    1.98527   1.99698   2.03174   2.10297   2.11071
  Beta virt. eigenvalues --    2.14744   2.18268   2.21539   2.29691   2.32906
  Beta virt. eigenvalues --    2.36144   2.38032   2.42898   2.45383   2.51301
  Beta virt. eigenvalues --    2.55733   2.57782   2.62988   2.69121   2.70021
  Beta virt. eigenvalues --    2.74843   2.80416   2.84513   2.86835   2.89910
  Beta virt. eigenvalues --    2.93831   2.94784   2.96664   2.97897   3.02597
  Beta virt. eigenvalues --    3.02694   3.08112   3.09384   3.12622   3.17691
  Beta virt. eigenvalues --    3.18993   3.20330   3.23891   3.25884   3.28182
  Beta virt. eigenvalues --    3.28946   3.30653   3.32617   3.37585   3.41468
  Beta virt. eigenvalues --    3.43703   3.45001   3.46602   3.47913   3.49399
  Beta virt. eigenvalues --    3.51923   3.55659   3.58532   3.62171   3.65512
  Beta virt. eigenvalues --    3.68013   3.70920   3.72899   3.74186   3.77901
  Beta virt. eigenvalues --    3.79440   3.81460   3.83769   3.85712   3.86488
  Beta virt. eigenvalues --    3.88210   3.88798   3.91261   3.94963   3.96016
  Beta virt. eigenvalues --    3.99265   4.01160   4.03426   4.05233   4.08606
  Beta virt. eigenvalues --    4.10341   4.11325   4.16613   4.19774   4.22254
  Beta virt. eigenvalues --    4.23053   4.23582   4.28834   4.35772   4.37000
  Beta virt. eigenvalues --    4.41406   4.44146   4.47019   4.49123   4.64524
  Beta virt. eigenvalues --    4.68596   4.71181   4.76950   4.77872   4.81125
  Beta virt. eigenvalues --    4.85769   4.86884   4.89468   4.92845   4.94789
  Beta virt. eigenvalues --    5.01262   5.02599   5.03155   5.09405   5.12271
  Beta virt. eigenvalues --    5.16337   5.18258   5.23523   5.27248   5.33970
  Beta virt. eigenvalues --    5.37105   5.42936   5.48353   5.55480   5.57823
  Beta virt. eigenvalues --    5.74113   5.77259   5.80212   5.84902   5.95285
  Beta virt. eigenvalues --    5.97420   6.10283   6.18889   6.20840   6.33438
  Beta virt. eigenvalues --    6.36553   6.37865   6.46659   6.48435   6.56056
  Beta virt. eigenvalues --    6.59340   6.63443   6.64484   6.69409   6.70938
  Beta virt. eigenvalues --    6.71988   6.75037   6.84223   6.87640   6.89211
  Beta virt. eigenvalues --    6.96336   7.13023   7.13660   7.19813   7.38368
  Beta virt. eigenvalues --    7.44204   7.59051   9.91243  11.22056  11.79905
  Beta virt. eigenvalues --   12.08362  12.83292
          Condensed to atoms (all electrons):
               1          2          3          4          5          6
     1  O    7.856032   0.000073  -0.000098   0.322340  -0.053268  -0.048732
     2  O    0.000073   7.895162   0.055756  -0.019903   0.012520  -0.000474
     3  O   -0.000098   0.055756   8.084738   0.009395  -0.094883  -0.000088
     4  C    0.322340  -0.019903   0.009395   4.759959   0.293910   0.394229
     5  C   -0.053268   0.012520  -0.094883   0.293910   5.401564  -0.060907
     6  H   -0.048732  -0.000474  -0.000088   0.394229  -0.060907   0.696267
     7  H   -0.028632   0.023358  -0.003939   0.393049  -0.044494  -0.065811
     8  H    0.007175  -0.035197   0.198217  -0.010662   0.216705   0.006746
     9  H   -0.002562   0.001594   0.001059  -0.029587   0.375764  -0.006652
    10  H    0.005839   0.002423  -0.004414  -0.045221   0.359613   0.004035
    11  H    0.317796  -0.000026  -0.000023  -0.037776  -0.007346  -0.011147
    12  H   -0.000025   0.304385  -0.030302   0.000587  -0.004138  -0.000164
               7          8          9         10         11         12
     1  O   -0.028632   0.007175  -0.002562   0.005839   0.317796  -0.000025
     2  O    0.023358  -0.035197   0.001594   0.002423  -0.000026   0.304385
     3  O   -0.003939   0.198217   0.001059  -0.004414  -0.000023  -0.030302
     4  C    0.393049  -0.010662  -0.029587  -0.045221  -0.037776   0.000587
     5  C   -0.044494   0.216705   0.375764   0.359613  -0.007346  -0.004138
     6  H   -0.065811   0.006746  -0.006652   0.004035  -0.011147  -0.000164
     7  H    0.590530  -0.011573   0.007644  -0.003623   0.009430  -0.001159
     8  H   -0.011573   0.399633  -0.014218  -0.005681  -0.001170   0.001549
     9  H    0.007644  -0.014218   0.555025  -0.024060   0.005355   0.000109
    10  H   -0.003623  -0.005681  -0.024060   0.567433  -0.000110   0.002301
    11  H    0.009430  -0.001170   0.005355  -0.000110   0.485075   0.000008
    12  H   -0.001159   0.001549   0.000109   0.002301   0.000008   0.458786
          Atomic-Atomic Spin Densities.
               1          2          3          4          5          6
     1  O   -0.002929   0.000006  -0.000151   0.004001   0.001419  -0.001036
     2  O    0.000006   0.061697  -0.042294  -0.003326   0.019460   0.000664
     3  O   -0.000151  -0.042294   0.556006   0.010312  -0.115499  -0.001044
     4  C    0.004001  -0.003326   0.010312  -0.023686  -0.045274   0.005759
     5  C    0.001419   0.019460  -0.115499  -0.045274   0.764599  -0.017034
     6  H   -0.001036   0.000664  -0.001044   0.005759  -0.017034   0.066147
     7  H    0.000042  -0.003529   0.002940   0.010763  -0.010534  -0.008350
     8  H    0.000051   0.008505  -0.032961  -0.006672   0.062821   0.000546
     9  H    0.000012  -0.000418   0.002925   0.006214  -0.006109  -0.002045
    10  H   -0.000190  -0.001364   0.002769   0.005468  -0.006235  -0.001031
    11  H   -0.000384  -0.000003   0.000037   0.000489  -0.000267  -0.000855
    12  H    0.000001   0.001079  -0.001074   0.000042  -0.000355   0.000010
               7          8          9         10         11         12
     1  O    0.000042   0.000051   0.000012  -0.000190  -0.000384   0.000001
     2  O   -0.003529   0.008505  -0.000418  -0.001364  -0.000003   0.001079
     3  O    0.002940  -0.032961   0.002925   0.002769   0.000037  -0.001074
     4  C    0.010763  -0.006672   0.006214   0.005468   0.000489   0.000042
     5  C   -0.010534   0.062821  -0.006109  -0.006235  -0.000267  -0.000355
     6  H   -0.008350   0.000546  -0.002045  -0.001031  -0.000855   0.000010
     7  H    0.021184  -0.000004   0.000211   0.000367   0.000244  -0.000037
     8  H   -0.000004  -0.060625   0.000421   0.001142  -0.000103   0.000141
     9  H    0.000211   0.000421  -0.031898   0.002959   0.000073  -0.000008
    10  H    0.000367   0.001142   0.002959  -0.037167   0.000018  -0.000076
    11  H    0.000244  -0.000103   0.000073   0.000018   0.001052  -0.000000
    12  H   -0.000037   0.000141  -0.000008  -0.000076  -0.000000  -0.001676
 Mulliken charges and spin densities:
               1          2
     1  O   -0.375937   0.000842
     2  O   -0.239671   0.040477
     3  O   -0.215419   0.381966
     4  C   -0.030320  -0.035910
     5  C   -0.395038   0.646992
     6  H    0.092699   0.041731
     7  H    0.135221   0.013297
     8  H    0.248476  -0.026739
     9  H    0.130528  -0.027663
    10  H    0.141465  -0.033340
    11  H    0.239934   0.000300
    12  H    0.268062  -0.001953
 Sum of Mulliken charges =  -0.00000   1.00000
 Mulliken charges and spin densities with hydrogens summed into heavy atoms:
               1          2
     1  O   -0.136003   0.001143
     2  O    0.028391   0.038524
     3  O    0.033058   0.355227
     4  C    0.197600   0.019117
     5  C   -0.123045   0.585989
 APT charges:
               1
     1  O   -0.647586
     2  O   -0.537222
     3  O   -0.162052
     4  C   -0.571421
     5  C   -0.727726
     6  H    0.371601
     7  H    0.253027
     8  H    0.167066
     9  H    0.374879
    10  H    0.321353
    11  H    0.595581
    12  H    0.562501
 Sum of APT charges =  -0.00000
 APT charges with hydrogens summed into heavy atoms:
               1
     1  O   -0.052005
     2  O    0.025278
     3  O    0.005014
     4  C    0.053207
     5  C   -0.031494
 Electronic spatial extent (au):  <R**2>=            583.3348
 Charge=             -0.0000 electrons
 Dipole moment (field-independent basis, Debye):
    X=             -0.7556    Y=              2.7326    Z=              2.1909  Tot=              3.5830
 Quadrupole moment (field-independent basis, Debye-Ang):
   XX=            -28.0270   YY=            -32.7451   ZZ=            -30.0264
   XY=             -2.2790   XZ=              4.5176   YZ=             -1.0695
 Traceless Quadrupole moment (field-independent basis, Debye-Ang):
   XX=              2.2391   YY=             -2.4789   ZZ=              0.2398
   XY=             -2.2790   XZ=              4.5176   YZ=             -1.0695
 Octapole moment (field-independent basis, Debye-Ang**2):
  XXX=              4.0941  YYY=             -2.1799  ZZZ=             -0.0677  XYY=              2.0554
  XXY=             10.2382  XXZ=              6.9256  XZZ=              2.7926  YZZ=              0.0606
  YYZ=             -0.6736  XYZ=              3.9688
 Hexadecapole moment (field-independent basis, Debye-Ang**3):
 XXXX=           -409.4105 YYYY=           -122.2782 ZZZZ=            -92.5860 XXXY=            -14.7870
 XXXZ=             43.6712 YYYX=             -0.9545 YYYZ=             -2.7500 ZZZX=             11.1889
 ZZZY=             -1.5994 XXYY=           -109.1254 XXZZ=            -81.3043 YYZZ=            -35.4328
 XXYZ=             -3.3153 YYXZ=              1.7264 ZZXY=             -1.0161
 N-N= 1.879513320179D+02 E-N=-1.095257653671D+03  KE= 3.043580885711D+02
  Exact polarizability:   0.000   0.000   0.000   0.000   0.000   0.000
 Approx polarizability:  61.296  -7.716  48.765  -0.888  -1.839  50.113
                          Isotropic Fermi Contact Couplings
        Atom                 a.u.       MegaHertz       Gauss      10(-4) cm-1
     1  O(17)             -0.00074       0.44746       0.15966       0.14926
     2  O(17)              0.00118      -0.71778      -0.25612      -0.23943
     3  O(17)              0.10014     -60.70434     -21.66082     -20.24879
     4  C(13)             -0.01356     -15.23888      -5.43761      -5.08314
     5  C(13)              0.18566     208.71858      74.47598      69.62102
     6  H(1)               0.02061      92.11448      32.86874      30.72608
     7  H(1)               0.00841      37.59645      13.41535      12.54082
     8  H(1)              -0.03137    -140.22649     -50.03630     -46.77452
     9  H(1)              -0.00367     -16.42146      -5.85959      -5.47761
    10  H(1)              -0.00839     -37.50091     -13.38126     -12.50896
    11  H(1)               0.00001       0.02516       0.00898       0.00839
    12  H(1)              -0.00107      -4.78040      -1.70577      -1.59457
 --------------------------------------------------------
       Center         ----  Spin Dipole Couplings  ----
                      3XX-RR        3YY-RR        3ZZ-RR
 --------------------------------------------------------
     1   Atom       -0.003743     -0.003419      0.007163
     2   Atom        0.237313     -0.076900     -0.160413
     3   Atom        1.190779     -0.635754     -0.555026
     4   Atom        0.027150     -0.014105     -0.013044
     5   Atom        0.153665     -0.217704      0.064040
     6   Atom        0.000479     -0.003435      0.002956
     7   Atom       -0.005399      0.010428     -0.005029
     8   Atom        0.136474     -0.074608     -0.061865
     9   Atom       -0.009997      0.004981      0.005016
    10   Atom        0.005940     -0.026207      0.020266
    11   Atom        0.005920     -0.003653     -0.002267
    12   Atom        0.001481     -0.008708      0.007227
 --------------------------------------------------------
                        XY            XZ            YZ
 --------------------------------------------------------
     1   Atom        0.003420      0.006090      0.006142
     2   Atom       -0.186941     -0.097021      0.091611
     3   Atom       -0.836504     -0.937007      0.345659
     4   Atom        0.005957     -0.019115     -0.001738
     5   Atom       -0.264683     -0.455919      0.238882
     6   Atom        0.004310     -0.009050     -0.000661
     7   Atom        0.002085     -0.002605     -0.008824
     8   Atom       -0.105531     -0.081052      0.040039
     9   Atom       -0.037814      0.006475     -0.029876
    10   Atom        0.007335      0.022139      0.034759
    11   Atom        0.003773      0.003783      0.001761
    12   Atom       -0.001613      0.013931      0.004271
 --------------------------------------------------------


 ---------------------------------------------------------------------------------
              Anisotropic Spin Dipole Couplings in Principal Axis System
 ---------------------------------------------------------------------------------

       Atom             a.u.   MegaHertz   Gauss  10(-4) cm-1        Axes

              Baa    -0.0070     0.508     0.181     0.169  0.7659 -0.6409 -0.0513
     1 O(17)  Bbb    -0.0059     0.425     0.152     0.142  0.5140  0.6583 -0.5500
              Bcc     0.0129    -0.933    -0.333    -0.311  0.3863  0.3948  0.8336
 
              Baa    -0.2209    15.985     5.704     5.332 -0.0803 -0.6071  0.7905
     2 O(17)  Bbb    -0.1348     9.751     3.479     3.253  0.4835  0.6698  0.5635
              Bcc     0.3557   -25.736    -9.183    -8.585  0.8717 -0.4275 -0.2397
 
              Baa    -0.9757    70.599    25.191    23.549  0.5014  0.5970  0.6263
     3 O(17)  Bbb    -0.9434    68.262    24.357    22.770 -0.0143  0.7295 -0.6839
              Bcc     1.9190  -138.860   -49.549   -46.319  0.8651 -0.3339 -0.3743
 
              Baa    -0.0207    -2.784    -0.993    -0.928  0.3795 -0.0997  0.9198
     4 C(13)  Bbb    -0.0148    -1.988    -0.709    -0.663 -0.0769  0.9873  0.1388
              Bcc     0.0356     4.771     1.703     1.592  0.9220  0.1234 -0.3670
 
              Baa    -0.3556   -47.717   -17.027   -15.917  0.3425  0.9266 -0.1553
     5 C(13)  Bbb    -0.3492   -46.856   -16.720   -15.630  0.6363 -0.1071  0.7640
              Bcc     0.7048    94.574    33.746    31.546  0.6912 -0.3605 -0.6263
 
              Baa    -0.0090    -4.801    -1.713    -1.601  0.7085 -0.4884  0.5094
     6 H(1)   Bbb    -0.0026    -1.394    -0.497    -0.465  0.2350  0.8439  0.4822
              Bcc     0.0116     6.195     2.210     2.066 -0.6654 -0.2219  0.7127
 
              Baa    -0.0096    -5.134    -1.832    -1.713  0.3646  0.3430  0.8657
     7 H(1)   Bbb    -0.0052    -2.799    -0.999    -0.933  0.9197 -0.2783 -0.2770
              Bcc     0.0149     7.933     2.831     2.646  0.1459  0.8971 -0.4169
 
              Baa    -0.1195   -63.754   -22.749   -21.266  0.3214  0.9272 -0.1921
     8 H(1)   Bbb    -0.0906   -48.352   -17.253   -16.128  0.3628  0.0668  0.9295
              Bcc     0.2101   112.106    40.002    37.395  0.8747 -0.3685 -0.3149
 
              Baa    -0.0457   -24.399    -8.706    -8.139  0.6621  0.6797  0.3157
     9 H(1)   Bbb    -0.0066    -3.547    -1.266    -1.183 -0.5728  0.1874  0.7980
              Bcc     0.0524    27.946     9.972     9.322 -0.4832  0.7092 -0.5134
 
              Baa    -0.0451   -24.080    -8.592    -8.032  0.0882  0.8669 -0.4906
    10 H(1)   Bbb    -0.0056    -2.965    -1.058    -0.989  0.8845 -0.2946 -0.3617
              Bcc     0.0507    27.045     9.650     9.021  0.4581  0.4021  0.7928
 
              Baa    -0.0051    -2.714    -0.969    -0.905 -0.2219  0.9326 -0.2846
    11 H(1)   Bbb    -0.0037    -1.975    -0.705    -0.659 -0.4183  0.1726  0.8918
              Bcc     0.0088     4.689     1.673     1.564  0.8808  0.3169  0.3518
 
              Baa    -0.0134    -7.123    -2.542    -2.376  0.5509  0.6606 -0.5100
    12 H(1)   Bbb    -0.0054    -2.893    -1.032    -0.965 -0.5583  0.7459  0.3631
              Bcc     0.0188    10.016     3.574     3.341  0.6203  0.0848  0.7798
 

 ---------------------------------------------------------------------------------

 No NMR shielding tensors so no spin-rotation constants.
 Leave Link  601 at Sat Jun 22 12:34:52 2019, MaxMem=   671088640 cpu:               6.6 elap:               0.4
 (Enter /shared/centos7/gaussian/g16/l701.exe)
 SCFChk:  SCF convergence  5.26D-09 required  1.00D-08
 ... and contract with generalized density number  0.
 Compute integral second derivatives.
 Entering OneElI...
 Calculate overlap and kinetic energy integrals
    NBasis = 280  MinDer = 2  MaxDer = 2
 Requested accuracy = 0.1000D-12
 PrmmSu-InSpLW:  IPartL=    0 NPrtUS=   20 NPrtUL=    1 DoSpLW=F IThBeg=    0 IThEnd=   19 NThAct=   20.
 PrsmSu:  NPrtUS=  20 ThrOK=T IAlg=1 NPAlg=1 LenDen=           0 ISkipM=0 DoSpLW=F IThBeg=    0 IThEnd=   19.
 Prism:   IPart=     0 DynPar=F LinDyn=F Incr=           2.
 PRISM was handed    33429248 working-precision words and  4263 shell-pairs
 PRISM was handed    33429248 working-precision words and  4263 shell-pairs
 PRISM was handed    33429248 working-precision words and  4263 shell-pairs
 PRISM was handed    33429248 working-precision words and  4263 shell-pairs
 PRISM was handed    33429248 working-precision words and  4263 shell-pairs
 PRISM was handed    33429248 working-precision words and  4263 shell-pairs
 PRISM was handed    33429248 working-precision words and  4263 shell-pairs
 PRISM was handed    33429248 working-precision words and  4263 shell-pairs
 PRISM was handed    33429248 working-precision words and  4263 shell-pairs
 PRISM was handed    33429248 working-precision words and  4263 shell-pairs
 PRISM was handed    33429248 working-precision words and  4263 shell-pairs
 PRISM was handed    33429248 working-precision words and  4263 shell-pairs
 PRISM was handed    33429248 working-precision words and  4263 shell-pairs
 PRISM was handed    33429248 working-precision words and  4263 shell-pairs
 PRISM was handed    33429248 working-precision words and  4263 shell-pairs
 PRISM was handed    33429248 working-precision words and  4263 shell-pairs
 PRISM was handed    33429248 working-precision words and  4263 shell-pairs
 PRISM was handed    33429248 working-precision words and  4263 shell-pairs
 PRISM was handed    33429248 working-precision words and  4263 shell-pairs
 PRISM was handed    33429248 working-precision words and  4263 shell-pairs
 IPart= 14 NShTot=         198 NBatch=          27 AvBLen=         7.3
 IPart= 16 NShTot=         197 NBatch=          26 AvBLen=         7.6
 IPart=  3 NShTot=         235 NBatch=          50 AvBLen=         4.7
 IPart= 17 NShTot=         196 NBatch=          26 AvBLen=         7.5
 IPart= 18 NShTot=         195 NBatch=          26 AvBLen=         7.5
 IPart= 19 NShTot=         195 NBatch=          26 AvBLen=         7.5
 IPart=  5 NShTot=         220 NBatch=          43 AvBLen=         5.1
 IPart=  4 NShTot=         232 NBatch=          49 AvBLen=         4.7
 IPart=  8 NShTot=         209 NBatch=          33 AvBLen=         6.3
 IPart=  6 NShTot=         213 NBatch=          36 AvBLen=         5.9
 IPart=  9 NShTot=         207 NBatch=          32 AvBLen=         6.5
 IPart= 11 NShTot=         203 NBatch=          30 AvBLen=         6.8
 IPart= 15 NShTot=         197 NBatch=          26 AvBLen=         7.6
 IPart= 10 NShTot=         205 NBatch=          31 AvBLen=         6.6
 IPart=  7 NShTot=         211 NBatch=          34 AvBLen=         6.2
 IPart=  1 NShTot=         249 NBatch=          62 AvBLen=         4.0
 IPart=  2 NShTot=         238 NBatch=          52 AvBLen=         4.6
 IPart= 13 NShTot=         200 NBatch=          29 AvBLen=         6.9
 IPart=  0 NShTot=         261 NBatch=          71 AvBLen=         3.7
 IPart= 12 NShTot=         202 NBatch=          30 AvBLen=         6.7
 PrSmSu:  NxtVal=             41.
 Entering OneElI...
 Calculate potential energy integrals
    NBasis = 280  MinDer = 2  MaxDer = 2
 Requested accuracy = 0.1000D-12
 PrmmSu-InSpLW:  IPartL=    0 NPrtUS=   20 NPrtUL=    1 DoSpLW=F IThBeg=    0 IThEnd=   19 NThAct=   20.
 PrsmSu:  NPrtUS=  20 ThrOK=T IAlg=1 NPAlg=1 LenDen=           0 ISkipM=0 DoSpLW=F IThBeg=    0 IThEnd=   19.
 Prism:   IPart=     0 DynPar=F LinDyn=F Incr=          24.
 PRISM was handed    33447889 working-precision words and  4035 shell-pairs
 PRISM was handed    33447889 working-precision words and  4035 shell-pairs
 PRISM was handed    33447889 working-precision words and  4035 shell-pairs
 PRISM was handed    33447889 working-precision words and  4035 shell-pairs
 PRISM was handed    33447889 working-precision words and  4035 shell-pairs
 PRISM was handed    33447889 working-precision words and  4035 shell-pairs
 PRISM was handed    33447889 working-precision words and  4035 shell-pairs
 PRISM was handed    33447889 working-precision words and  4035 shell-pairs
 PRISM was handed    33447889 working-precision words and  4035 shell-pairs
 PRISM was handed    33447889 working-precision words and  4035 shell-pairs
 PRISM was handed    33447889 working-precision words and  4035 shell-pairs
 PRISM was handed    33447889 working-precision words and  4035 shell-pairs
 PRISM was handed    33447889 working-precision words and  4035 shell-pairs
 PRISM was handed    33447889 working-precision words and  4035 shell-pairs
 PRISM was handed    33447889 working-precision words and  4035 shell-pairs
 PRISM was handed    33447889 working-precision words and  4035 shell-pairs
 PRISM was handed    33447889 working-precision words and  4035 shell-pairs
 PRISM was handed    33447889 working-precision words and  4035 shell-pairs
 PRISM was handed    33447889 working-precision words and  4035 shell-pairs
 PRISM was handed    33447889 working-precision words and  4035 shell-pairs
 IPart= 18 NShTot=        2160 NBatch=         180 AvBLen=        12.0
 IPart= 19 NShTot=        2136 NBatch=         178 AvBLen=        12.0
 IPart= 16 NShTot=        2244 NBatch=         187 AvBLen=        12.0
 IPart= 17 NShTot=        2208 NBatch=         184 AvBLen=        12.0
 IPart= 14 NShTot=        2280 NBatch=         190 AvBLen=        12.0
 IPart= 15 NShTot=        2280 NBatch=         190 AvBLen=        12.0
 IPart=  5 NShTot=        2460 NBatch=         205 AvBLen=        12.0
 IPart= 12 NShTot=        2328 NBatch=         194 AvBLen=        12.0
 IPart=  4 NShTot=        2580 NBatch=         215 AvBLen=        12.0
 IPart= 13 NShTot=        2316 NBatch=         193 AvBLen=        12.0
 IPart=  3 NShTot=        2640 NBatch=         220 AvBLen=        12.0
 IPart=  7 NShTot=        2436 NBatch=         203 AvBLen=        12.0
 IPart=  8 NShTot=        2400 NBatch=         200 AvBLen=        12.0
 IPart= 11 NShTot=        2340 NBatch=         195 AvBLen=        12.0
 IPart=  9 NShTot=        2388 NBatch=         199 AvBLen=        12.0
 IPart= 10 NShTot=        2376 NBatch=         198 AvBLen=        12.0
 IPart=  6 NShTot=        2436 NBatch=         203 AvBLen=        12.0
 IPart=  2 NShTot=        2712 NBatch=         226 AvBLen=        12.0
 IPart=  0 NShTot=        2916 NBatch=         243 AvBLen=        12.0
 IPart=  1 NShTot=        2784 NBatch=         232 AvBLen=        12.0
 PrSmSu:  NxtVal=            481.
 Polarizability after L701:
                1             2             3 
      1  0.000000D+00
      2  0.000000D+00  0.000000D+00
      3  0.000000D+00  0.000000D+00  0.000000D+00
 Dipole Derivatives after L701:
                 1             2             3             4             5 
      1  -0.107348D+01  0.100698D+01 -0.457203D+00 -0.821033D+00 -0.499188D+00
      2   0.181926D+00 -0.387771D+00  0.108734D+00 -0.408925D-01 -0.251717D+00
      3  -0.199142D+00  0.316872D+00 -0.481510D+00 -0.238750D+00 -0.301437D+00
                 6             7             8             9            10 
      1  -0.101442D+01 -0.444800D-01 -0.224014D+00  0.247461D+00 -0.523679D+00
      2   0.182928D-01  0.540700D-01 -0.224136D+00  0.406859D-01  0.159660D+00
      3  -0.538917D+00 -0.169507D+00  0.108845D+00 -0.217540D+00  0.162553D+00
                11            12            13            14            15 
      1  -0.234731D+00  0.614515D+00 -0.456821D+00  0.196303D+00 -0.418707D+00
      2  -0.445418D+00 -0.560194D-01 -0.111428D+00 -0.105530D+01  0.937196D-01
      3   0.134037D+00 -0.745165D+00 -0.392322D+00 -0.121921D+00 -0.671057D+00
                16            17            18            19            20 
      1   0.505129D+00 -0.889869D-01 -0.451565D+00  0.118047D-01  0.150654D+00
      2  -0.340677D-01  0.134099D+00  0.519108D-01 -0.184770D+00  0.449078D+00
      3  -0.249807D+00  0.844402D-01  0.475573D+00  0.145580D+00 -0.217575D+00
                21            22            23            24            25 
      1  -0.908984D-01  0.430641D-01  0.627883D-01  0.429190D-01  0.277023D+00
      2  -0.845060D-01  0.206337D-01  0.186462D+00 -0.109275D+00 -0.346103D+00
      3   0.298199D+00  0.124661D+00 -0.618383D-01  0.271672D+00  0.803352D-01
                26            27            28            29            30 
      1  -0.272317D+00  0.231950D+00  0.191922D+00  0.589272D-01  0.103692D+00
      2   0.646986D+00 -0.466204D+00  0.347580D+00  0.330609D+00  0.427394D+00
      3  -0.125098D+00  0.200627D+00  0.259198D+00  0.158066D+00  0.441527D+00
                31            32            33            34            35 
      1   0.105785D+01 -0.825064D+00  0.464865D+00  0.832696D+00  0.668650D+00
      2  -0.576202D-01  0.324393D+00  0.115507D-02  0.110128D-01  0.292713D+00
      3   0.239733D+00 -0.230100D+00  0.404498D+00  0.237469D+00  0.255708D+00
                36 
      1   0.727394D+00
      2  -0.258874D-01
      3   0.562094D+00
 Hessian after L701:
                1             2             3             4             5 
      1  0.783800D+01
      2 -0.537255D-01  0.100988D+02
      3 -0.448311D+01 -0.925050D+00  0.900395D+01
      4  0.283974D+00  0.678280D-02  0.963231D-01  0.967586D+01
      5  0.156016D-03 -0.166311D+00  0.434336D-03  0.265714D+00  0.787791D+01
      6  0.851705D-01 -0.616292D-02 -0.143479D+00 -0.277683D+01  0.278033D+01
      7  0.354809D+00  0.147115D+00 -0.525402D-01 -0.608502D+01 -0.805368D+00
      8  0.110991D+00 -0.170087D+00 -0.204677D-02 -0.764027D+00 -0.288652D+01
      9 -0.212355D-01  0.523879D-02 -0.185091D+00  0.131326D+01 -0.425216D+01
     10 -0.483592D+01  0.159956D+01  0.358510D+01  0.243878D+00 -0.759871D-01
     11  0.159144D+01 -0.647535D+01  0.201046D+01 -0.156501D+00 -0.141732D+00
     12  0.361671D+01  0.202635D+01 -0.291767D+01  0.598346D-02 -0.154318D-01
     13  0.910842D-01  0.424625D+00 -0.717390D-01  0.280147D+00 -0.543198D+00
     14  0.341950D+00  0.266219D+00  0.286481D-01 -0.457150D+00 -0.292582D-01
     15 -0.260237D-01  0.115379D+00 -0.296725D+00  0.365304D-01 -0.209276D-01
     16  0.121313D+00 -0.117322D+00 -0.297969D+00  0.266579D-01 -0.122049D-01
     17 -0.123101D+00  0.829873D-01 -0.741857D-01 -0.728832D-02 -0.122544D-01
     18 -0.337558D+00 -0.635982D-01  0.820542D-01 -0.249916D-01  0.769235D-02
     19  0.842612D-01 -0.134049D+00 -0.123726D+00  0.172830D+00 -0.233051D-02
     20 -0.190631D+00  0.127273D+00 -0.111507D+00  0.776404D-01 -0.142559D+00
     21 -0.143367D+00 -0.797425D-01 -0.268674D+00 -0.937202D-01 -0.371187D-03
     22  0.591497D-01  0.770369D-01  0.202646D-01  0.154142D+00  0.258547D-01
     23  0.611741D-01 -0.296741D-01  0.663527D-02  0.415982D-01  0.409227D-01
     24 -0.145359D-02 -0.871817D-02 -0.620911D-01 -0.145631D+00  0.122028D+00
     25 -0.323023D-01  0.110867D-01 -0.427475D-02  0.233728D-01 -0.519506D-01
     26  0.389653D-01  0.640815D-01 -0.208119D-01 -0.564796D-01  0.332996D-01
     27 -0.139042D-01 -0.483523D-01 -0.409855D-01  0.284890D-01 -0.333028D-01
     28  0.347093D-01  0.833075D-01  0.787223D-01 -0.217131D-01 -0.246163D-01
     29  0.764525D-01  0.264621D-01  0.722141D-01 -0.633726D-01  0.102292D-01
     30  0.818571D-01  0.830400D-01  0.204848D-01 -0.464648D-01  0.585548D-01
     31 -0.402144D+01 -0.205259D+01  0.124273D+01  0.281346D-01 -0.919335D-02
     32 -0.186820D+01 -0.382093D+01 -0.989276D+00 -0.174232D-01 -0.398371D-02
     33  0.122304D+01 -0.110477D+01 -0.518887D+01  0.144122D-01 -0.359852D-02
     34  0.223668D-01  0.816836D-02  0.102180D-01 -0.478227D+01  0.123312D+01
     35  0.145230D-01 -0.346448D-02  0.449042D-02  0.113051D+01 -0.457974D+01
     36  0.198694D-01  0.639025D-02 -0.290829D-02  0.159264D+01  0.135675D+01
                6             7             8             9            10 
      6  0.510883D+01
      7  0.134610D+01  0.506449D+01
      8 -0.418716D+01  0.204599D+01  0.612687D+01
      9 -0.270300D+00 -0.692409D+00  0.409380D+01  0.385512D+01
     10 -0.873532D-01  0.397965D+00  0.802898D-01 -0.299352D+00  0.143945D+02
     11  0.253905D-01  0.529668D-01 -0.275410D+00 -0.306045D-01 -0.223632D+01
     12 -0.184968D+00 -0.298198D+00 -0.318582D-01 -0.137657D+00 -0.230038D+01
     13  0.108422D-02  0.240648D+00 -0.127208D+00 -0.443095D-01 -0.399976D+01
     14 -0.385054D-02 -0.400445D-01 -0.165587D+00 -0.951262D-01  0.230329D+01
     15 -0.449321D+00 -0.948651D-01 -0.293336D-01 -0.102314D+00 -0.398828D+00
     16 -0.219733D-01  0.245928D-01 -0.608934D-02 -0.195184D-01 -0.307253D+01
     17  0.110607D-02 -0.567974D-03 -0.161029D-01  0.491079D-02 -0.264207D+00
     18 -0.321389D-02 -0.349713D-01  0.367095D-02  0.397135D-02 -0.101223D+01
     19 -0.502594D-01 -0.393336D-02  0.342305D-01 -0.992108D-02 -0.327505D+01
     20 -0.228927D-01  0.651980D-01  0.152219D-01 -0.354991D-01 -0.125921D+01
     21 -0.126079D+00 -0.371115D-01 -0.289832D-01 -0.514617D-02  0.618410D+00
     22 -0.153693D+00 -0.148768D+00 -0.137386D+01 -0.251236D+00  0.170401D-01
     23  0.146224D+00 -0.142951D+01 -0.272537D+01  0.115098D-01  0.228723D-01
     24 -0.828852D-01 -0.121331D+00 -0.557737D-01 -0.319775D+01 -0.586354D-01
     25  0.126132D-01  0.722519D-01 -0.698199D-01 -0.125975D-01  0.614338D-01
     26 -0.150726D-01 -0.811642D-01  0.132546D-01  0.740740D-02 -0.250318D-01
     27 -0.147429D-01 -0.218648D-02  0.217160D-03 -0.389482D-01  0.882404D-02
     28 -0.123489D-01 -0.627978D-01 -0.194014D-01  0.119964D-01 -0.288318D-01
     29  0.359768D-01 -0.461507D-01  0.411307D-01  0.728569D-01 -0.157830D+00
     30 -0.279725D-01 -0.455285D-01  0.966612D-01  0.297465D-01 -0.608039D-01
     31  0.496266D-02  0.463212D-01 -0.216080D-02  0.229117D-02  0.503800D-01
     32 -0.244769D-03 -0.211969D-01 -0.917354D-02 -0.213167D-02 -0.113524D-01
     33 -0.761509D-02  0.129805D-01 -0.207822D-03 -0.111334D-01 -0.168079D-01
     34  0.165253D+01  0.994464D-01  0.910679D-01  0.230346D-01  0.469282D-01
     35  0.124635D+01  0.112733D+00  0.517715D-01  0.219799D+00  0.239185D-01
     36 -0.379825D+01  0.200637D-01  0.141008D+00  0.595059D-01  0.220575D-01
               11            12            13            14            15 
     11  0.158342D+02
     12 -0.100407D+01  0.142294D+02
     13  0.217487D+01 -0.409625D+00  0.104043D+02
     14 -0.258987D+01 -0.720689D+00 -0.109458D+01  0.101408D+02
     15 -0.681942D+00 -0.545601D+01 -0.215285D+00  0.282085D+00  0.127193D+02
     16 -0.284705D+00 -0.103537D+01 -0.612555D-01 -0.132541D+00  0.983239D-01
     17 -0.364041D+01  0.400324D+00 -0.109047D+00  0.854003D-01  0.752973D-01
     18  0.428698D+00 -0.195222D+01  0.123722D+00  0.969335D-01  0.893767D-01
     19 -0.111645D+01  0.468095D+00  0.119023D+00 -0.400714D-01  0.151172D-01
     20 -0.264362D+01 -0.639748D+00  0.102888D-01 -0.889756D-01  0.793406D-01
     21 -0.750544D+00 -0.377581D+01 -0.243084D-02  0.832798D-01  0.463736D-01
     22  0.546469D-01 -0.301615D-01 -0.921485D+00 -0.675583D+00 -0.940054D+00
     23 -0.223446D-01 -0.198239D-01 -0.587262D+00 -0.173905D+01  0.462852D+00
     24 -0.420434D-01  0.899602D-02 -0.102206D+01  0.574000D+00 -0.122770D+01
     25 -0.513059D-01  0.271721D-01 -0.325059D+01 -0.670453D+00  0.598702D+00
     26 -0.582615D-01  0.603114D-01 -0.730191D+00 -0.251008D+01 -0.984823D+00
     27  0.216271D-01  0.191263D-01  0.586843D+00 -0.869479D+00 -0.289402D+01
     28 -0.120358D+00 -0.493595D-01 -0.295337D+01  0.438468D+00  0.928469D+00
     29 -0.334569D-01 -0.770847D-01  0.566841D+00 -0.334745D+01  0.709219D+00
     30 -0.733734D-01  0.113048D+00  0.104335D+01  0.623197D+00 -0.240054D+01
[...]
    D3       -3.12851   0.00000   0.00000   0.00130   0.00130  -3.12722
    D4       -1.70940   0.00000   0.00000   0.00046   0.00046  -1.70894
    D5        0.07955  -0.00000   0.00000  -0.00802  -0.00802   0.07152
    D6       -1.20387   0.00000   0.00000   0.00106   0.00106  -1.20281
    D7        0.76144   0.00000   0.00000   0.00116   0.00116   0.76260
    D8        3.12949   0.00000   0.00000   0.00112   0.00112   3.13060
    D9        2.90709   0.00000   0.00000   0.00113   0.00113   2.90822
   D10       -1.41078   0.00000   0.00000   0.00122   0.00122  -1.40956
   D11        0.95727   0.00000   0.00000   0.00118   0.00118   0.95845
   D12        0.86559   0.00000   0.00000   0.00111   0.00111   0.86670
   D13        2.83090   0.00000   0.00000   0.00121   0.00121   2.83211
   D14       -1.08424   0.00000   0.00000   0.00117   0.00117  -1.08307
   D15       -0.96263   0.00000   0.00000   0.00735   0.00735  -0.95528
   D16       -3.08239   0.00000   0.00000   0.00727   0.00727  -3.07511
   D17        1.14141   0.00000   0.00000   0.00733   0.00733   1.14874
         Item               Value     Threshold  Converged?
 Maximum Force            0.000028     0.000450     YES
 RMS     Force            0.000007     0.000300     YES
 Maximum Displacement     0.003726     0.001800     NO 
 RMS     Displacement     0.001034     0.001200     YES
 Predicted change in Energy=-5.328298D-08
                           ----------------------------
                           ! Non-Optimized Parameters !
                           ! (Angstroms and Degrees)  !
 --------------------------                            --------------------------
 ! Name  Definition              Value          Derivative Info.                !
 --------------------------------------------------------------------------------
 ! R1    R(1,4)                  1.4091         -DE/DX =    0.0                 !
 ! R2    R(1,11)                 0.9601         -DE/DX =    0.0                 !
 ! R3    R(2,3)                  1.3882         -DE/DX =    0.0                 !
 ! R4    R(2,12)                 0.9652         -DE/DX =    0.0                 !
 ! R5    R(3,8)                  1.1624         -DE/DX =    0.0                 !
 ! R6    R(4,5)                  1.498          -DE/DX =    0.0                 !
 ! R7    R(4,6)                  1.1006         -DE/DX =    0.0                 !
 ! R8    R(4,7)                  1.0913         -DE/DX =    0.0                 !
 ! R9    R(5,8)                  1.3499         -DE/DX =    0.0                 !
 ! R10   R(5,9)                  1.0884         -DE/DX =    0.0                 !
 ! R11   R(5,10)                 1.0872         -DE/DX =    0.0                 !
 ! A1    A(4,1,11)             108.9323         -DE/DX =    0.0                 !
 ! A2    A(3,2,12)             103.0543         -DE/DX =    0.0                 !
 ! A3    A(2,3,8)              103.6434         -DE/DX =    0.0                 !
 ! A4    A(1,4,5)              113.3985         -DE/DX =    0.0                 !
 ! A5    A(1,4,6)              111.0509         -DE/DX =    0.0                 !
 ! A6    A(1,4,7)              106.2139         -DE/DX =    0.0                 !
 ! A7    A(5,4,6)              109.2586         -DE/DX =    0.0                 !
 ! A8    A(5,4,7)              109.7199         -DE/DX =    0.0                 !
 ! A9    A(6,4,7)              106.9626         -DE/DX =    0.0                 !
 ! A10   A(4,5,8)              103.9052         -DE/DX =    0.0                 !
 ! A11   A(4,5,9)              115.9495         -DE/DX =    0.0                 !
 ! A12   A(4,5,10)             115.3294         -DE/DX =    0.0                 !
 ! A13   A(8,5,9)              103.3207         -DE/DX =    0.0                 !
 ! A14   A(8,5,10)             102.8141         -DE/DX =    0.0                 !
 ! A15   A(9,5,10)             113.2182         -DE/DX =    0.0                 !
 ! A16   A(3,8,5)              169.8616         -DE/DX =    0.0                 !
 ! D1    D(11,1,4,5)           -58.5982         -DE/DX =    0.0                 !
 ! D2    D(11,1,4,6)            64.8806         -DE/DX =    0.0                 !
 ! D3    D(11,1,4,7)          -179.1762         -DE/DX =    0.0                 !
 ! D4    D(12,2,3,8)           -97.9153         -DE/DX =    0.0                 !
 ! D5    D(2,3,8,5)              4.0981         -DE/DX =    0.0                 !
 ! D6    D(1,4,5,8)            -68.9159         -DE/DX =    0.0                 !
 ! D7    D(1,4,5,9)             43.6936         -DE/DX =    0.0                 !
 ! D8    D(1,4,5,10)           179.3704         -DE/DX =    0.0                 !
 ! D9    D(6,4,5,8)            166.6287         -DE/DX =    0.0                 !
 ! D10   D(6,4,5,9)            -80.7617         -DE/DX =    0.0                 !
 ! D11   D(6,4,5,10)            54.9151         -DE/DX =    0.0                 !
 ! D12   D(7,4,5,8)             49.6584         -DE/DX =    0.0                 !
 ! D13   D(7,4,5,9)            162.268          -DE/DX =    0.0                 !
 ! D14   D(7,4,5,10)           -62.0552         -DE/DX =    0.0                 !
 ! D15   D(4,5,8,3)            -54.7333         -DE/DX =    0.0                 !
 ! D16   D(9,5,8,3)           -176.1911         -DE/DX =    0.0                 !
 ! D17   D(10,5,8,3)            65.8177         -DE/DX =    0.0                 !
 --------------------------------------------------------------------------------
 GradGradGradGradGradGradGradGradGradGradGradGradGradGradGradGradGradGrad

 Leave Link  103 at Sat Jun 22 12:52:33 2019, MaxMem=   671088640 cpu:               0.9 elap:               0.1
 (Enter /shared/centos7/gaussian/g16/l9999.exe)

 ----------------------------------------------------------------------

 Electric dipole moment (input orientation):
 (Debye = 10**-18 statcoulomb cm , SI units = C m)
                  (au)            (Debye)         (10**-30 SI)
   Tot        0.136467D+01      0.346864D+01      0.115701D+02
   x         -0.232068D+00     -0.589857D+00     -0.196755D+01
   y          0.104209D+01      0.264873D+01      0.883520D+01
   z          0.850008D+00      0.216050D+01      0.720667D+01

 Dipole polarizability, Alpha (input orientation).
 (esu units = cm**3 , SI units = C**2 m**2 J**-1)
 Alpha(0;0):
               (au)            (10**-24 esu)      (10**-40 SI)
   iso        0.496672D+02      0.735992D+01      0.818902D+01
   aniso      0.273620D+02      0.405464D+01      0.451139D+01
   xx         0.633737D+02      0.939101D+01      0.104489D+02
   yx        -0.967292D+01     -0.143338D+01     -0.159485D+01
   yy         0.442473D+02      0.655677D+01      0.729539D+01
   zx        -0.356897D+01     -0.528866D+00     -0.588443D+00
   zy         0.549909D+00      0.814882D-01      0.906678D-01
   zz         0.413807D+02      0.613198D+01      0.682275D+01

 ----------------------------------------------------------------------

 Dipole orientation:
     8         -3.63602883         -0.39035279         -1.00991864
     8          3.42724639         -0.90167778         -1.53063749
     8          2.68477208          1.59357113         -1.20753543
     6         -2.10126216         -1.18775823          1.01467844
     6         -0.56886219          0.90178267          2.15438160
     1         -3.23783699         -2.09478935          2.50167617
     1         -0.84583537         -2.63432045          0.25050937
     1          1.13017972          1.47554297          0.34012928
     1         -1.55680541          2.67998503          2.45776032
     1          0.62151920          0.35613079          3.73754717
     1         -4.76056361          0.90586532         -0.42106885
     1          4.93124195         -1.02001197         -0.50553482

 Electric dipole moment (dipole orientation):
 (Debye = 10**-18 statcoulomb cm , SI units = C m)
                  (au)            (Debye)         (10**-30 SI)
   Tot        0.136467D+01      0.346864D+01      0.115701D+02
   x          0.000000D+00      0.000000D+00      0.000000D+00
   y          0.000000D+00      0.000000D+00      0.000000D+00
   z          0.136467D+01      0.346864D+01      0.115701D+02

 Dipole polarizability, Alpha (dipole orientation).
 (esu units = cm**3 , SI units = C**2 m**2 J**-1)
 Alpha(0;0):
               (au)            (10**-24 esu)      (10**-40 SI)
   iso        0.496672D+02      0.735992D+01      0.818902D+01
   aniso      0.273620D+02      0.405464D+01      0.451139D+01
   xx         0.599176D+02      0.887887D+01      0.987907D+01
   yx        -0.161888D+01     -0.239893D+00     -0.266917D+00
   yy         0.416045D+02      0.616515D+01      0.685965D+01
   zx        -0.126028D+02     -0.186754D+01     -0.207792D+01
   zy         0.823499D+00      0.122030D+00      0.135777D+00
   zz         0.474796D+02      0.703575D+01      0.782833D+01

 ----------------------------------------------------------------------

 Test job not archived.
 1\1\GINC-C0094\Freq\UM062X\CC-pVTZ\C2H7O3(2)\HARMS.N\22-Jun-2019\0\\#P
  Geom=AllCheck Guess=TCheck SCRF=Check Test GenChk UM062X/CC-pVTZ Freq
 \\Gaussian input prepared by ASE\\0,2\O,-1.8154646351,-0.6944040824,-0
 .5023408054\O,1.8808635394,-0.7790982912,0.1682643699\O,1.5715455204,0
 .166007347,-0.8003606462\C,-1.233729234,-0.0816458321,0.6253176453\C,-
 0.4513507782,1.1522163087,0.2945067097\H,-1.9966811356,0.1635931022,1.
 3796870801\H,-0.5737095175,-0.8277189802,1.070958942\H,0.6192795604,0.
 6855622749,-0.3824407793\H,-0.916837838,1.8358526566,-0.4129567298\H,0
 .0017751707,1.6573674996,1.1439438866\H,-2.3980428077,-0.0646056981,-0
 .9332371269\H,2.5653031553,-0.3412993049,0.6893064539\\Version=EM64L-G
 16RevA.03\State=2-A\HF=-305.8943829\S2=0.75981\S2-1=0.\S2A=0.750047\RM
 SD=3.143e-09\RMSF=8.464e-06\ZeroPoint=0.0909337\Thermal=0.0982605\Dipo
 le=-0.2320678,1.0420897,0.850008\DipoleDeriv=-0.5940133,-0.2378351,-0.
 144543,-0.2860975,-0.4251947,-0.1386412,-0.2592247,-0.1960325,-0.70983
 23,-0.4304772,0.2039955,0.0764586,0.5055309,-0.4154953,-0.1015884,-0.5
 602563,0.3922064,-0.16422,0.4021344,-0.3815689,-0.1157005,-0.8457265,0
 .2217986,0.1721998,0.4181544,-0.295819,-0.2017026,0.2507035,0.1978313,
 0.1763073,0.3223576,0.299421,0.1748594,0.4399003,0.182313,0.4874101,0.
 6864588,-0.3619709,-0.152762,-0.2403084,0.0443463,-0.0097406,-0.438016
 9,0.2279031,0.1763593,-0.1089415,0.0140908,0.1223976,-0.1169769,0.0484
 47,-0.0377996,0.0247088,-0.0530172,-0.0809347,0.0374067,0.0325451,-0.0
 629281,0.0219327,-0.0013687,0.0408467,-0.0672783,-0.0061722,0.0274322,
 -0.7630001,0.4291328,0.2425793,0.5331952,-0.1128192,-0.1244734,0.40502
 63,-0.1701785,-0.0032359,-0.0878638,0.0954266,-0.0522032,0.033715,-0.0
 18695,0.0450471,0.0597887,0.0158531,-0.01563,-0.0543204,0.0218879,-0.0
 21543,-0.0219755,-0.0045177,-0.0368907,-0.0289625,-0.0846445,-0.039498
 5,0.3282782,0.0636785,-0.0157627,0.1083452,0.1700874,0.0277769,0.00731
 96,0.0038631,0.2777545,0.3336348,-0.0772134,-0.0523001,-0.0139919,0.19
 39903,-0.0115958,-0.0011594,-0.0162747,0.246098\Polar=63.3736965,-9.67
 2923,44.2472898,-3.5689658,0.5499095,41.3806725\Quadrupole=2.8331866,-
 2.5091316,-0.324055,-1.8989069,3.6373714,-0.9333383\PG=C01 [X(C2H7O3)]
 \NImag=1\\0.30321544,-0.16642365,0.39454406,0.24892416,-0.03645534,0.3
 6328686,-0.00048164,-0.00068105,-0.00088356,0.32851417,0.00048394,0.00
 139259,0.00153232,0.13055981,0.33176829,0.00036465,-0.00202663,-0.0012
 7983,0.24696210,-0.01789004,0.30328257,-0.00058206,0.00130670,0.001312
 43,-0.05660237,0.01182284,-0.02289674,0.09905751,-0.00002262,-0.001624
 89,-0.00192080,0.04206236,-0.14319013,0.13201766,-0.04002184,0.1351001
 7,0.00010126,0.00187499,0.00250040,-0.05415324,0.10943674,-0.17142377,
 0.00796975,-0.13239247,0.25544522,-0.09944384,-0.00453680,-0.06397830,
 0.00011558,0.00169795,-0.00492236,0.00693534,-0.00772036,0.00207429,0.
 54161018,-0.03170818,-0.12159868,-0.08081091,0.00142148,-0.00324863,0.
 00618164,-0.00329946,0.00622439,-0.00566277,-0.06074650,0.52494845,-0.
 07403217,-0.04385755,-0.18939677,0.00103102,-0.00337250,0.00545943,-0.
 00740648,0.00869820,-0.00420921,0.01960663,-0.02605340,0.52831856,-0.0
 1215117,-0.01913554,-0.00425636,0.00415723,-0.01753859,0.02630748,-0.1
 0044473,0.07571749,0.01852965,-0.10218307,-0.05738296,0.00036347,0.308
 70288,-0.01451310,-0.01894655,-0.00580150,-0.00003496,0.00433091,-0.00
 920163,0.04117141,-0.02573151,-0.01029485,-0.07128572,-0.16398481,0.03
 829127,0.07335033,0.48984246,-0.02568654,-0.03681731,-0.00468793,-0.00
 442950,0.01361219,-0.01785366,0.06617304,-0.05039166,-0.00838398,0.010
 31284,0.04583843,-0.08250384,0.18183698,-0.05606722,0.49079026,0.01450
 841,-0.00701397,-0.01588332,-0.00030731,0.00043196,-0.00058503,0.00069
 917,-0.00063239,0.00020086,-0.17457882,0.04262840,0.11389459,-0.013063
 21,-0.00033901,0.01108769,0.18572152,0.00540062,-0.00500666,-0.0199872
 4,-0.00010794,0.00180039,-0.00330320,0.00238246,-0.00367413,0.00256868
 ,0.03445661,-0.05538158,-0.02718601,-0.01925958,0.00048094,0.01672129,
 -0.03711442,0.06423296,0.00861030,-0.01604325,-0.03356657,0.00009952,0
 .00014965,-0.00020597,0.00063911,-0.00088312,0.00018162,0.10880666,-0.
 03310764,-0.14527813,0.01224310,0.00304211,-0.00555320,-0.12244626,0.0
 4279469,0.17373825,-0.01131641,0.00695406,-0.01280966,-0.00047915,0.00
 004775,0.00004141,0.00032295,0.00031305,-0.00006398,-0.14275863,0.1076
 9211,-0.06278027,0.01268394,-0.01189403,0.00895784,-0.01415517,0.01785
 317,-0.00720664,0.15725172,-0.01279689,0.01319830,-0.01006392,0.000595
 39,0.00040863,-0.00185059,0.00005551,-0.00074989,0.00139523,0.11612252
 ,-0.17860024,0.07463804,0.01338390,-0.02026808,0.01279494,0.00420593,-
 0.00378751,0.00231985,-0.11587148,0.19299215,-0.02536694,0.01771825,-0
 .02177088,-0.00008581,-0.00021896,0.00011393,-0.00023634,0.00004874,-0
 .00048867,-0.05645918,0.06283696,-0.08385635,-0.00174954,0.00967551,-0
 .00373780,0.01280270,-0.01444238,0.00889529,0.07356704,-0.07545476,0.1
 0419623,0.00207217,-0.00086528,-0.00308027,-0.01059936,0.03327931,-0.0
 4542287,0.04034755,-0.06300854,0.02407406,-0.02345430,0.00574399,0.021
 76343,0.07157548,-0.03254879,-0.06008866,-0.00112643,-0.00554887,-0.00
 174225,0.00036904,0.00061158,-0.00079968,-0.05766493,0.00055444,0.0009
 8002,0.00145717,0.02248433,-0.03181260,0.02475564,-0.04030863,0.024345
 16,0.00126552,-0.00213588,-0.00174675,-0.00111873,-0.04983838,-0.00220
 467,0.03299551,-0.00121095,0.00079570,0.00176770,-0.00074525,-0.000453
 43,0.00096123,0.05096927,0.02096402,-0.00096860,0.00025070,0.00043498,
 -0.01617895,-0.00036692,0.02035300,-0.00962617,0.03182226,-0.04274412,
 0.01168770,-0.00133931,-0.00941699,-0.04040552,0.01437205,0.00309153,0
 .00075537,0.00251483,0.00104445,0.00042848,-0.00008850,0.00008981,0.04
 822021,-0.04551179,0.03850455,0.00161955,0.00161981,0.00148359,-0.0011
 9070,0.00279028,-0.00297715,0.00582728,-0.00598433,0.00139969,0.010764
 54,-0.01389098,0.01172126,-0.09003728,0.07185682,-0.09602087,0.0001765
 7,0.00107736,-0.00031740,-0.00209306,-0.00292430,0.00027697,-0.0142467
 5,0.01166447,-0.00357125,0.09180519,0.00124216,0.00345640,-0.00132678,
 0.00021009,-0.00065611,0.00081443,-0.00165935,0.00160872,-0.00077164,0
 .01383516,-0.01257385,0.01573866,0.06787886,-0.15660698,0.11929718,-0.
 00047699,-0.00025674,-0.00000316,-0.00319249,-0.00333696,0.00140404,0.
 00538651,-0.00491957,0.00251420,-0.07489798,0.16319331,0.00188039,-0.0
 0100871,0.00179478,0.00119547,-0.00276411,0.00339414,-0.00649413,0.006
 00199,-0.00043102,-0.00713731,0.00487093,-0.00471796,-0.08703499,0.112
 71651,-0.15566885,0.00000599,-0.00052152,0.00015187,0.00211340,0.00019
 470,0.00059699,0.01198446,-0.00849892,-0.00085419,0.09356829,-0.126947
 69,0.16665148,-0.00184196,-0.00521087,0.00057578,-0.00047122,0.0016401
 7,-0.00393463,0.00642028,-0.00581257,0.00197913,-0.00375162,-0.0032704
 7,-0.01607374,-0.07727350,-0.05686724,-0.09358441,0.00049084,0.0010041
 8,0.00019688,0.00027707,-0.00070353,0.00069911,-0.00739041,0.01042356,
 0.01311888,-0.00274481,-0.00697377,-0.00995337,0.08509692,-0.00504290,
 -0.00514560,-0.00045101,0.00007947,-0.00071161,0.00175487,-0.00183892,
 0.00236135,-0.00034173,-0.00466939,-0.00322585,-0.02165075,-0.06386818
 ,-0.11060251,-0.09763041,-0.00043549,0.00057181,0.00071194,0.00101003,
 0.00041993,0.00019842,0.00137091,-0.00440812,-0.00568283,0.00777639,0.
 01115489,0.01576883,0.06525661,0.11042608,0.00096323,0.00192015,0.0014
 6805,0.00058326,-0.00112622,0.00205926,-0.00220284,0.00326448,-0.00049
 689,0.00413203,0.00359542,0.00785514,-0.10462786,-0.09763466,-0.220608
 24,-0.00036432,-0.00080957,0.00021546,-0.00071232,-0.00032894,-0.00004
 717,0.00068950,-0.00582798,-0.00868941,-0.00527360,-0.01013617,-0.0109
 9380,0.10635753,0.10723655,0.22951690,-0.19603177,0.19367408,-0.151931
 10,0.00033301,-0.00045385,0.00075965,-0.00059483,0.00072732,-0.0003547
 3,-0.01284805,0.01312624,-0.00768000,-0.00044395,0.00176308,0.00119266
 ,0.00158110,-0.00029387,0.00108126,0.00014237,-0.00249368,-0.00252324,
 0.00045353,-0.00035764,-0.00054760,-0.00026485,-0.00130609,-0.00009719
 ,0.00102882,0.00006637,0.00040785,0.20675713,0.22297324,-0.26126544,0.
 15382605,0.00011481,-0.00033455,0.00052574,-0.00034653,0.00045679,-0.0
 0032765,-0.01567870,0.00971458,-0.01358746,-0.00174608,0.00263510,-0.0
 0231359,-0.00007787,-0.00011580,-0.00075767,-0.00215674,0.00004384,-0.
 00255964,0.00045626,-0.00014454,-0.00013970,0.00068706,-0.00096927,0.0
 0060560,0.00022314,-0.00059510,0.00026723,-0.20440554,0.25058492,-0.13
 468693,0.11438424,-0.11872057,-0.00000846,-0.00036255,0.00043811,-0.00
 025480,0.00057822,-0.00052351,-0.02478143,0.02434445,-0.02183486,0.000
 29291,-0.00055213,0.00278614,0.00038976,0.00138938,0.00038482,-0.00126
 868,-0.00375324,-0.00423354,0.00066259,-0.00040642,-0.00011276,-0.0006
 0056,-0.00046013,0.00052861,0.00057856,0.00030842,-0.00014727,0.159753
 67,-0.13548533,0.14147505,0.00043327,0.00031253,0.00052662,-0.26298824
 ,-0.16476158,-0.19369651,-0.00138610,0.00438243,-0.00175674,-0.0004073
 3,-0.00031367,-0.00040774,-0.00152263,-0.00065880,0.00024891,0.0000533
 2,0.00015028,0.00003573,-0.00024467,-0.00018494,-0.00012509,-0.0003356
 0,-0.00149935,-0.00291254,0.00038433,-0.00004611,-0.00003101,0.0001596
 0,0.00029510,0.00004753,-0.00011252,-0.00004305,-0.00007664,0.26596658
 ,-0.00014706,0.00001646,0.00000195,-0.19670379,-0.15974718,-0.13177789
 ,0.03073581,0.00487397,0.03324996,0.00066111,-0.00052703,-0.00053977,-
 0.00156128,0.00105570,0.00196065,0.00003482,0.00034061,0.00000892,-0.0
 0001017,0.00013325,-0.00016742,0.00415363,-0.00139523,0.00165501,0.000
 22540,-0.00009384,-0.00041762,0.00029079,-0.00024526,-0.00042029,-0.00
 004641,-0.00001053,0.00001507,0.16236716,0.15559908,-0.00010282,0.0000
 6047,-0.00006252,-0.17413185,-0.09862961,-0.14433721,-0.02697685,0.003
 15651,-0.02942606,0.00065843,-0.00069379,-0.00041903,-0.00149932,0.001
 45454,0.00232957,0.00014198,0.00026103,-0.00000789,-0.00026662,0.00019
 718,0.00024215,0.00373948,-0.00183893,-0.00170084,0.00031104,-0.000122
 94,-0.00045205,0.00004029,-0.00022230,-0.00013203,-0.00006123,-0.00005
 360,-0.00004024,0.19814748,0.09643144,0.17400616\\0.00000280,0.0000022
 2,-0.00000201,0.00000711,-0.00000423,-0.00000307,0.00001658,0.00000911
 ,0.00000732,-0.00000214,-0.00000048,0.00000160,0.00000170,0.00002512,0
 .00000769,0.00000289,0.00000133,0.00000272,-0.00000149,-0.00000099,-0.
 00000203,-0.00001839,-0.00002890,-0.00000748,0.00000005,-0.00000255,-0
 .00000458,-0.00000646,0.00000196,-0.00000306,-0.00000395,-0.00000287,0
 .00000320,0.00000130,0.00000028,-0.00000032\\\@


 RESEARCH IS WHAT I AM DOING WHEN I DON'T KNOW WHAT I AM DOING.
     -- WERNER VON BRAUN
 Job cpu time:       0 days  1 hours 29 minutes 57.6 seconds.
 Elapsed time:       0 days  0 hours  4 minutes 30.6 seconds.
 File lengths (MBytes):  RWF=   1360 Int=      0 D2E=      0 Chk=     32 Scr=     32
 Normal termination of Gaussian 16 at Sat Jun 22 12:52:33 2019.
