 Entering Gaussian System, Link 0=g16
 Input=/scratch/harms.n//autotst-2.0-QMScratch/ts/CCO+[O]O_OO+[CH2]CO/conformers/CCO+[O]O_OO+[CH2]CO_forward_3.com
 Output=/scratch/harms.n//autotst-2.0-QMScratch/ts/CCO+[O]O_OO+[CH2]CO/conformers/CCO+[O]O_OO+[CH2]CO_forward_3.log
 Initial command:
 /shared/centos7/gaussian/g16/l1.exe "/scratch/harms.n/gauss_scrdir/Gau-22218.inp" -scrdir="/scratch/harms.n/gauss_scrdir/"
 Entering Link 1 = /shared/centos7/gaussian/g16/l1.exe PID=     22219.
  
 Copyright (c) 1988,1990,1992,1993,1995,1998,2003,2009,2016,
            Gaussian, Inc.  All Rights Reserved.
  
 This is part of the Gaussian(R) 16 program.  It is based on
 the Gaussian(R) 09 system (copyright 2009, Gaussian, Inc.),
 the Gaussian(R) 03 system (copyright 2003, Gaussian, Inc.),
 the Gaussian(R) 98 system (copyright 1998, Gaussian, Inc.),
 the Gaussian(R) 94 system (copyright 1995, Gaussian, Inc.),
 the Gaussian 92(TM) system (copyright 1992, Gaussian, Inc.),
 the Gaussian 90(TM) system (copyright 1990, Gaussian, Inc.),
 the Gaussian 88(TM) system (copyright 1988, Gaussian, Inc.),
 the Gaussian 86(TM) system (copyright 1986, Carnegie Mellon
 University), and the Gaussian 82(TM) system (copyright 1983,
 Carnegie Mellon University). Gaussian is a federally registered
 trademark of Gaussian, Inc.
  
 This software contains proprietary and confidential information,
 including trade secrets, belonging to Gaussian, Inc.
  
 This software is provided under written license and may be
 used, copied, transmitted, or stored only in accord with that
 written license.
  
 The following legend is applicable only to US Government
 contracts under FAR:
  
                    RESTRICTED RIGHTS LEGEND
  
 Use, reproduction and disclosure by the US Government is
 subject to restrictions as set forth in subparagraphs (a)
 and (c) of the Commercial Computer Software - Restricted
 Rights clause in FAR 52.227-19.
  
 Gaussian, Inc.
 340 Quinnipiac St., Bldg. 40, Wallingford CT 06492
  
  
 ---------------------------------------------------------------
 Warning -- This program may not be used in any manner that
 competes with the business of Gaussian, Inc. or will provide
 assistance to any competitor of Gaussian, Inc.  The licensee
 of this program is prohibited from giving any competitor of
 Gaussian, Inc. access to this program.  By using this program,
 the user acknowledges that Gaussian, Inc. is engaged in the
 business of creating and licensing software in the field of
 computational chemistry and represents and warrants to the
 licensee that it is not a competitor of Gaussian, Inc. and that
 it will not use this program in any manner prohibited above.
 ---------------------------------------------------------------
  

 Cite this work as:
 Gaussian 16, Revision A.03,
 M. J. Frisch, G. W. Trucks, H. B. Schlegel, G. E. Scuseria, 
 M. A. Robb, J. R. Cheeseman, G. Scalmani, V. Barone, 
 G. A. Petersson, H. Nakatsuji, X. Li, M. Caricato, A. V. Marenich, 
 J. Bloino, B. G. Janesko, R. Gomperts, B. Mennucci, H. P. Hratchian, 
 J. V. Ortiz, A. F. Izmaylov, J. L. Sonnenberg, D. Williams-Young, 
 F. Ding, F. Lipparini, F. Egidi, J. Goings, B. Peng, A. Petrone, 
 T. Henderson, D. Ranasinghe, V. G. Zakrzewski, J. Gao, N. Rega, 
 G. Zheng, W. Liang, M. Hada, M. Ehara, K. Toyota, R. Fukuda, 
 J. Hasegawa, M. Ishida, T. Nakajima, Y. Honda, O. Kitao, H. Nakai, 
 T. Vreven, K. Throssell, J. A. Montgomery, Jr., J. E. Peralta, 
 F. Ogliaro, M. J. Bearpark, J. J. Heyd, E. N. Brothers, K. N. Kudin, 
 V. N. Staroverov, T. A. Keith, R. Kobayashi, J. Normand, 
 K. Raghavachari, A. P. Rendell, J. C. Burant, S. S. Iyengar, 
 J. Tomasi, M. Cossi, J. M. Millam, M. Klene, C. Adamo, R. Cammi, 
 J. W. Ochterski, R. L. Martin, K. Morokuma, O. Farkas, 
 J. B. Foresman, and D. J. Fox, Gaussian, Inc., Wallingford CT, 2016.
 
 ******************************************
 Gaussian 16:  EM64L-G16RevA.03 25-Dec-2016
                22-Jun-2019 
 ******************************************
 %nprocshared=20
 Will use up to   20 processors via shared memory.
 %mem=5GB
 ----------------------------------------------------------------------
 #p m062x/cc-pVTZ opt=(ts,calcfc,noeigentest,maxcycles=900) freq scf=(m
 axcycle=900) IOP(7/33=1,2/16=3)
 ----------------------------------------------------------------------
 1/5=1,6=900,10=4,11=1,18=20,26=3,38=1/1,3;
 2/9=110,12=2,16=3,17=6,18=5,40=1/2;
 3/5=16,6=1,11=2,25=1,30=1,71=2,74=-55,140=1/1,2,3;
 4//1;
 5/5=2,7=900,38=5/2;
 8/6=4,10=90,11=11/1;
 11/6=1,8=1,9=11,15=111,16=1/1,2,10;
 10/6=1,13=1/2;
 6/7=2,8=2,9=2,10=2,28=1/1;
 7/10=1,18=20,25=1,33=1/1,2,3,16;
 1/5=1,6=900,10=4,11=1,18=20,26=3/3(2);
 2/9=110,16=3/2;
 99//99;
 2/9=110,16=3/2;
 3/5=16,6=1,11=2,25=1,30=1,71=1,74=-55/1,2,3;
 4/5=5,16=3,69=1/1;
 5/5=2,7=900,38=5/2;
 7/33=1/1,2,3,16;
 1/5=1,6=900,11=1,18=20,26=3/3(-5);
 2/9=110,16=3/2;
 6/7=2,8=2,9=2,10=2,19=2,28=1/1;
 99/9=1/99;
 Leave Link    1 at Sat Jun 22 13:09:36 2019, MaxMem=   671088640 cpu:              24.6 elap:               1.3
 (Enter /shared/centos7/gaussian/g16/l101.exe)
 ------------------------------
 Gaussian input prepared by ASE
 ------------------------------
 Symbolic Z-matrix:
 Charge =  0 Multiplicity = 2
 O                    -2.18182  -0.79649   0.19322 
 O                     2.48713   0.07354   0.31561 
 O                     1.59769  -0.46544  -0.60769 
 C                    -1.68245   0.42014  -0.32108 
 C                    -0.32875   0.77516   0.2131 
 H                    -1.64466   0.30114  -1.40437 
 H                    -2.38162   1.24585  -0.1213 
 H                     0.54486  -0.20049  -0.18485 
 H                    -0.21543   0.71545   1.29565 
 H                     0.13064   1.66244  -0.20983 
 H                    -2.24416  -0.72441   1.14907 
 H                     2.65362  -0.66457   0.91448 
 
 Add virtual bond connecting atoms H8         and O3         Dist= 2.20D+00.
 Add virtual bond connecting atoms H8         and C5         Dist= 2.59D+00.
 ITRead=  0  0  0  0  0  0  0  0  0  0  0  0
 MicOpt= -1 -1 -1 -1 -1 -1 -1 -1 -1 -1 -1 -1
 NAtoms=     12 NQM=       12 NQMF=       0 NMMI=      0 NMMIF=      0
                NMic=       0 NMicF=      0.
                    Isotopes and Nuclear Properties:
 (Nuclear quadrupole moments (NQMom) in fm**2, nuclear magnetic moments (NMagM)
  in nuclear magnetons)

  Atom         1           2           3           4           5           6           7           8           9          10
 IAtWgt=          16          16          16          12          12           1           1           1           1           1
 AtmWgt=  15.9949146  15.9949146  15.9949146  12.0000000  12.0000000   1.0078250   1.0078250   1.0078250   1.0078250   1.0078250
 NucSpn=           0           0           0           0           0           1           1           1           1           1
 AtZEff=  -0.0000000  -0.0000000  -0.0000000  -0.0000000  -0.0000000  -0.0000000  -0.0000000  -0.0000000  -0.0000000  -0.0000000
 NQMom=    0.0000000   0.0000000   0.0000000   0.0000000   0.0000000   0.0000000   0.0000000   0.0000000   0.0000000   0.0000000
 NMagM=    0.0000000   0.0000000   0.0000000   0.0000000   0.0000000   2.7928460   2.7928460   2.7928460   2.7928460   2.7928460
 AtZNuc=   8.0000000   8.0000000   8.0000000   6.0000000   6.0000000   1.0000000   1.0000000   1.0000000   1.0000000   1.0000000

  Atom        11          12
 IAtWgt=           1           1
 AtmWgt=   1.0078250   1.0078250
 NucSpn=           1           1
 AtZEff=  -0.0000000  -0.0000000
 NQMom=    0.0000000   0.0000000
 NMagM=    2.7928460   2.7928460
 AtZNuc=   1.0000000   1.0000000
 Leave Link  101 at Sat Jun 22 13:09:37 2019, MaxMem=   671088640 cpu:               3.5 elap:               0.2
 (Enter /shared/centos7/gaussian/g16/l103.exe)

 GradGradGradGradGradGradGradGradGradGradGradGradGradGradGradGradGradGrad
 Berny optimization.
 Initialization pass.
                           ----------------------------
                           !    Initial Parameters    !
                           ! (Angstroms and Degrees)  !
 --------------------------                            --------------------------
 ! Name  Definition              Value          Derivative Info.                !
 --------------------------------------------------------------------------------
 ! R1    R(1,4)                  1.4121         calculate D2E/DX2 analytically  !
 ! R2    R(1,11)                 0.9606         calculate D2E/DX2 analytically  !
 ! R3    R(2,3)                  1.3907         calculate D2E/DX2 analytically  !
 ! R4    R(2,12)                 0.965          calculate D2E/DX2 analytically  !
 ! R5    R(3,8)                  1.1651         calculate D2E/DX2 analytically  !
 ! R6    R(4,5)                  1.498          calculate D2E/DX2 analytically  !
 ! R7    R(4,6)                  1.0905         calculate D2E/DX2 analytically  !
 ! R8    R(4,7)                  1.1003         calculate D2E/DX2 analytically  !
 ! R9    R(5,8)                  1.3687         calculate D2E/DX2 analytically  !
 ! R10   R(5,9)                  1.0901         calculate D2E/DX2 analytically  !
 ! R11   R(5,10)                 1.085          calculate D2E/DX2 analytically  !
 ! A1    A(4,1,11)             108.7056         calculate D2E/DX2 analytically  !
 ! A2    A(3,2,12)             103.0576         calculate D2E/DX2 analytically  !
 ! A3    A(2,3,8)              104.4095         calculate D2E/DX2 analytically  !
 ! A4    A(1,4,5)              113.1966         calculate D2E/DX2 analytically  !
 ! A5    A(1,4,6)              106.2629         calculate D2E/DX2 analytically  !
 ! A6    A(1,4,7)              110.8381         calculate D2E/DX2 analytically  !
 ! A7    A(5,4,6)              110.4145         calculate D2E/DX2 analytically  !
 ! A8    A(5,4,7)              109.369          calculate D2E/DX2 analytically  !
 ! A9    A(6,4,7)              106.5173         calculate D2E/DX2 analytically  !
 ! A10   A(4,5,8)              107.7084         calculate D2E/DX2 analytically  !
 ! A11   A(4,5,9)              115.7914         calculate D2E/DX2 analytically  !
 ! A12   A(4,5,10)             115.9408         calculate D2E/DX2 analytically  !
 ! A13   A(8,5,9)              100.5642         calculate D2E/DX2 analytically  !
 ! A14   A(8,5,10)             101.499          calculate D2E/DX2 analytically  !
 ! A15   A(9,5,10)             112.8227         calculate D2E/DX2 analytically  !
 ! A16   A(3,8,5)              147.6051         calculate D2E/DX2 analytically  !
 ! D1    D(11,1,4,5)            59.6193         calculate D2E/DX2 analytically  !
 ! D2    D(11,1,4,6)          -179.0272         calculate D2E/DX2 analytically  !
 ! D3    D(11,1,4,7)           -63.6917         calculate D2E/DX2 analytically  !
 ! D4    D(12,2,3,8)            92.9408         calculate D2E/DX2 analytically  !
 ! D5    D(2,3,8,5)             58.4901         calculate D2E/DX2 analytically  !
 ! D6    D(1,4,5,8)             62.6453         calculate D2E/DX2 analytically  !
 ! D7    D(1,4,5,9)            -48.95           calculate D2E/DX2 analytically  !
 ! D8    D(1,4,5,10)           175.4778         calculate D2E/DX2 analytically  !
 ! D9    D(6,4,5,8)            -56.3402         calculate D2E/DX2 analytically  !
 ! D10   D(6,4,5,9)           -167.9354         calculate D2E/DX2 analytically  !
 ! D11   D(6,4,5,10)            56.4924         calculate D2E/DX2 analytically  !
 ! D12   D(7,4,5,8)           -173.2378         calculate D2E/DX2 analytically  !
 ! D13   D(7,4,5,9)             75.1669         calculate D2E/DX2 analytically  !
 ! D14   D(7,4,5,10)           -60.4053         calculate D2E/DX2 analytically  !
 ! D15   D(4,5,8,3)            137.5302         calculate D2E/DX2 analytically  !
 ! D16   D(9,5,8,3)           -100.8579         calculate D2E/DX2 analytically  !
 ! D17   D(10,5,8,3)            15.2837         calculate D2E/DX2 analytically  !
 --------------------------------------------------------------------------------
 Trust Radius=3.00D-01 FncErr=1.00D-07 GrdErr=1.00D-06 EigMax=2.50D+02 EigMin=1.00D-04
 Number of steps in this run=    100 maximum allowed number of steps=    100.
 Search for a saddle point of order  1.
 GradGradGradGradGradGradGradGradGradGradGradGradGradGradGradGradGradGrad

 Leave Link  103 at Sat Jun 22 13:09:37 2019, MaxMem=   671088640 cpu:               0.9 elap:               0.1
 (Enter /shared/centos7/gaussian/g16/l202.exe)
                          Input orientation:                          
 ---------------------------------------------------------------------
 Center     Atomic      Atomic             Coordinates (Angstroms)
 Number     Number       Type             X           Y           Z
 ---------------------------------------------------------------------
      1          8           0       -2.181819   -0.796494    0.193222
      2          8           0        2.487127    0.073538    0.315605
      3          8           0        1.597687   -0.465441   -0.607694
      4          6           0       -1.682449    0.420138   -0.321084
      5          6           0       -0.328750    0.775156    0.213099
      6          1           0       -1.644662    0.301137   -1.404370
      7          1           0       -2.381622    1.245850   -0.121300
      8          1           0        0.544856   -0.200486   -0.184853
      9          1           0       -0.215430    0.715445    1.295651
     10          1           0        0.130637    1.662440   -0.209826
     11          1           0       -2.244163   -0.724405    1.149069
     12          1           0        2.653624   -0.664573    0.914475
 ---------------------------------------------------------------------
                    Distance matrix (angstroms):
                    1          2          3          4          5
     1  O    0.000000
     2  O    4.750894   0.000000
     3  O    3.877593   1.390713   0.000000
     4  C    1.412117   4.232123   3.409646   0.000000
     5  C    2.429885   2.903780   2.433915   1.497962   0.000000
     6  H    2.011376   4.481272   3.425662   1.090458   2.138346
     7  H    2.076057   5.026919   4.358898   1.100253   2.132524
     8  H    2.816544   2.024343   1.165096   2.316165   1.368733
     9  H    2.714405   2.945564   2.881772   2.202994   1.090104
    10  H    3.399449   2.890282   2.615036   2.200676   1.084977
    11  H    0.960587   4.869957   4.232386   1.945983   2.606440
    12  H    4.890718   0.964974   1.863238   4.637320   3.385159
                    6          7          8          9         10
     6  H    0.000000
     7  H    1.755523   0.000000
     8  H    2.555941   3.264996   0.000000
     9  H    3.082932   2.642247   1.899699   0.000000
    10  H    2.536093   2.548103   1.908584   1.811911   0.000000
    11  H    2.816237   2.348326   3.135676   2.492070   3.630881
    12  H    4.978444   5.484182   2.422974   3.206433   3.611718
                   11         12
    11  H    0.000000
    12  H    4.903767   0.000000
 Stoichiometry    C2H7O3(2)
 Framework group  C1[X(C2H7O3)]
 Deg. of freedom    30
 Full point group                 C1      NOp   1
 Largest Abelian subgroup         C1      NOp   1
 Largest concise Abelian subgroup C1      NOp   1
                         Standard orientation:                         
 ---------------------------------------------------------------------
 Center     Atomic      Atomic             Coordinates (Angstroms)
 Number     Number       Type             X           Y           Z
 ---------------------------------------------------------------------
      1          8           0       -2.181819   -0.796494    0.193222
      2          8           0        2.487127    0.073538    0.315605
      3          8           0        1.597687   -0.465441   -0.607694
      4          6           0       -1.682449    0.420138   -0.321084
      5          6           0       -0.328750    0.775156    0.213099
      6          1           0       -1.644662    0.301137   -1.404370
      7          1           0       -2.381622    1.245850   -0.121300
      8          1           0        0.544856   -0.200486   -0.184853
      9          1           0       -0.215430    0.715445    1.295651
     10          1           0        0.130637    1.662440   -0.209826
     11          1           0       -2.244163   -0.724405    1.149069
     12          1           0        2.653624   -0.664573    0.914475
 ---------------------------------------------------------------------
 Rotational constants (GHZ):          11.3161005           1.7563481           1.6783341
 Leave Link  202 at Sat Jun 22 13:09:37 2019, MaxMem=   671088640 cpu:               3.1 elap:               0.2
 (Enter /shared/centos7/gaussian/g16/l301.exe)
 Standard basis: CC-pVTZ (5D, 7F)
 Ernie: Thresh=  0.10000D-02 Tol=  0.10000D-05 Strict=F.
 Ernie:  15 primitive shells out of 186 were deleted.
 There are   280 symmetry adapted cartesian basis functions of A   symmetry.
 There are   248 symmetry adapted basis functions of A   symmetry.
   248 basis functions,   379 primitive gaussians,   280 cartesian basis functions
    22 alpha electrons       21 beta electrons
       nuclear repulsion energy       181.7148557104 Hartrees.
 IExCor= 4336 DFT=T Ex+Corr=M062X ExCW=0 ScaHFX=  0.540000
 ScaDFX=  1.000000  1.000000  1.000000  1.000000 ScalE2=  1.000000  1.000000
 IRadAn=      5 IRanWt=     -1 IRanGd=            0 ICorTp=0 IEmpDi=  4
 NAtoms=   12 NActive=   12 NUniq=   12 SFac= 1.00D+00 NAtFMM=   60 NAOKFM=F Big=F
 Integral buffers will be    131072 words long.
 Raffenetti 2 integral format.
 Two-electron integral symmetry is turned on.
 Leave Link  301 at Sat Jun 22 13:09:37 2019, MaxMem=   671088640 cpu:               1.1 elap:               0.1
 (Enter /shared/centos7/gaussian/g16/l302.exe)
 NPDir=0 NMtPBC=     1 NCelOv=     1 NCel=       1 NClECP=     1 NCelD=      1
         NCelK=      1 NCelE2=     1 NClLst=     1 CellRange=     0.0.
 One-electron integrals computed using PRISM.
 One-electron integral symmetry used in STVInt
 NBasis=   248 RedAO= T EigKep=  9.33D-04  NBF=   248
 NBsUse=   248 1.00D-06 EigRej= -1.00D+00 NBFU=   248
 Precomputing XC quadrature grid using
 IXCGrd= 4 IRadAn=           5 IRanWt=          -1 IRanGd=           0 AccXCQ= 0.00D+00.
 Generated NRdTot=       0 NPtTot=           0 NUsed=           0 NTot=          32
 NSgBfM=   280   280   280   280   280 MxSgAt=    12 MxSgA2=    12.
 Leave Link  302 at Sat Jun 22 13:09:37 2019, MaxMem=   671088640 cpu:               7.1 elap:               0.4
 (Enter /shared/centos7/gaussian/g16/l303.exe)
 DipDrv:  MaxL=1.
 Leave Link  303 at Sat Jun 22 13:09:38 2019, MaxMem=   671088640 cpu:               1.6 elap:               0.1
 (Enter /shared/centos7/gaussian/g16/l401.exe)
 ExpMin= 1.03D-01 ExpMax= 1.53D+04 ExpMxC= 5.22D+02 IAcc=3 IRadAn=         5 AccDes= 0.00D+00
 Harris functional with IExCor= 1009 and IRadAn=       5 diagonalized for initial guess.
 HarFok:  IExCor= 1009 AccDes= 0.00D+00 IRadAn=         5 IDoV= 1 UseB2=F ITyADJ=14
 ICtDFT=  3500011 ScaDFX=  1.000000  1.000000  1.000000  1.000000
 FoFCou: FMM=F IPFlag=           0 FMFlag=      100000 FMFlg1=           0
         NFxFlg=           0 DoJE=T BraDBF=F KetDBF=T FulRan=T
         wScrn=  0.000000 ICntrl=       500 IOpCl=  0 I1Cent=   200000004 NGrid=           0
         NMat0=    1 NMatS0=      1 NMatT0=    0 NMatD0=    1 NMtDS0=    0 NMtDT0=    0
 Petite list used in FoFCou.
 Harris En= -305.774414128634    
 JPrj=0 DoOrth=F DoCkMO=F.
 Initial guess <Sx>= 0.0000 <Sy>= 0.0000 <Sz>= 0.5000 <S**2>= 0.7500 S= 0.5000
 Leave Link  401 at Sat Jun 22 13:09:39 2019, MaxMem=   671088640 cpu:              19.5 elap:               1.0
 (Enter /shared/centos7/gaussian/g16/l502.exe)
 Integral symmetry usage will be decided dynamically.
 UHF open shell SCF:
 Using DIIS extrapolation, IDIIS=  1040.
 NGot=   671088640 LenX=   670923676 LenY=   670844835
 Requested convergence on RMS density matrix=1.00D-08 within 900 cycles.
 Requested convergence on MAX density matrix=1.00D-06.
 Requested convergence on             energy=1.00D-06.
 No special actions if energy rises.
 Fock matrices will be formed incrementally for  20 cycles.
 Integral accuracy reduced to 1.0D-05 until final iterations.

 Cycle   1  Pass 0  IDiag  1:
 FoFJK:  IHMeth= 1 ICntrl=       0 DoSepK=F KAlg= 0 I1Cent=           0 FoldK=F
 IRaf= 950000000 NMat=       1 IRICut=       1 DoRegI=T DoRafI=F ISym2E= 0 IDoP0=0 IntGTp=1.
 FoFCou: FMM=F IPFlag=           0 FMFlag=      100000 FMFlg1=           0
         NFxFlg=           0 DoJE=F BraDBF=F KetDBF=F FulRan=T
         wScrn=  0.000000 ICntrl=         0 IOpCl=  1 I1Cent=           0 NGrid=           0
         NMat0=    1 NMatS0=      1 NMatT0=    0 NMatD0=    1 NMtDS0=    0 NMtDT0=    0
 Symmetry not used in FoFCou.
 E= -305.738482777769    
 DIIS: error= 2.01D-02 at cycle   1 NSaved=   1.
 NSaved= 1 IEnMin= 1 EnMin= -305.738482777769     IErMin= 1 ErrMin= 2.01D-02
 ErrMax= 2.01D-02  0.00D+00 EMaxC= 1.00D-01 BMatC= 8.18D-01 BMatP= 8.18D-01
 IDIUse=3 WtCom= 7.99D-01 WtEn= 2.01D-01
 Coeff-Com:  0.100D+01
 Coeff-En:   0.100D+01
 Coeff:      0.100D+01
 Gap=     0.345 Goal=   None    Shift=    0.000
 Gap=     0.339 Goal=   None    Shift=    0.000
 GapD=    0.339 DampG=1.000 DampE=0.500 DampFc=0.5000 IDamp=-1.
 Damping current iteration by 5.00D-01
 RMSDP=2.28D-03 MaxDP=1.41D-01              OVMax= 2.32D-01

 Cycle   2  Pass 0  IDiag  1:
 RMSU=  1.14D-03    CP:  1.00D+00
 E= -305.813628327757     Delta-E=       -0.075145549988 Rises=F Damp=T
 DIIS: error= 8.23D-03 at cycle   2 NSaved=   2.
 NSaved= 2 IEnMin= 2 EnMin= -305.813628327757     IErMin= 2 ErrMin= 8.23D-03
 ErrMax= 8.23D-03  0.00D+00 EMaxC= 1.00D-01 BMatC= 7.63D-02 BMatP= 8.18D-01
 IDIUse=3 WtCom= 9.18D-01 WtEn= 8.23D-02
 Coeff-Com: -0.106D+00 0.111D+01
 Coeff-En:   0.000D+00 0.100D+01
 Coeff:     -0.968D-01 0.110D+01
 Gap=     0.354 Goal=   None    Shift=    0.000
 Gap=     0.293 Goal=   None    Shift=    0.000
 RMSDP=5.15D-04 MaxDP=2.11D-02 DE=-7.51D-02 OVMax= 7.64D-02

 Cycle   3  Pass 0  IDiag  1:
 RMSU=  5.05D-04    CP:  1.01D+00  9.25D-01
 E= -305.886301193245     Delta-E=       -0.072672865488 Rises=F Damp=F
 DIIS: error= 2.88D-03 at cycle   3 NSaved=   3.
 NSaved= 3 IEnMin= 3 EnMin= -305.886301193245     IErMin= 3 ErrMin= 2.88D-03
 ErrMax= 2.88D-03  0.00D+00 EMaxC= 1.00D-01 BMatC= 1.65D-02 BMatP= 7.63D-02
 IDIUse=3 WtCom= 9.71D-01 WtEn= 2.88D-02
 Coeff-Com: -0.884D-01 0.328D+00 0.760D+00
 Coeff-En:   0.000D+00 0.000D+00 0.100D+01
 Coeff:     -0.858D-01 0.319D+00 0.767D+00
 Gap=     0.355 Goal=   None    Shift=    0.000
 Gap=     0.266 Goal=   None    Shift=    0.000
 RMSDP=2.09D-04 MaxDP=7.60D-03 DE=-7.27D-02 OVMax= 3.22D-02

 Cycle   4  Pass 0  IDiag  1:
 RMSU=  1.84D-04    CP:  1.01D+00  9.89D-01  8.66D-01
 E= -305.889034471337     Delta-E=       -0.002733278093 Rises=F Damp=F
 DIIS: error= 1.31D-03 at cycle   4 NSaved=   4.
 NSaved= 4 IEnMin= 4 EnMin= -305.889034471337     IErMin= 4 ErrMin= 1.31D-03
 ErrMax= 1.31D-03  0.00D+00 EMaxC= 1.00D-01 BMatC= 4.27D-03 BMatP= 1.65D-02
 IDIUse=3 WtCom= 9.87D-01 WtEn= 1.31D-02
 Coeff-Com: -0.287D-01 0.644D-01 0.368D+00 0.596D+00
 Coeff-En:   0.000D+00 0.000D+00 0.649D-02 0.994D+00
 Coeff:     -0.284D-01 0.636D-01 0.363D+00 0.601D+00
 Gap=     0.350 Goal=   None    Shift=    0.000
 Gap=     0.272 Goal=   None    Shift=    0.000
 RMSDP=8.77D-05 MaxDP=3.11D-03 DE=-2.73D-03 OVMax= 8.58D-03

 Cycle   5  Pass 0  IDiag  1:
 RMSU=  6.01D-05    CP:  1.01D+00  9.88D-01  9.75D-01  8.24D-01
 E= -305.889861486093     Delta-E=       -0.000827014756 Rises=F Damp=F
 DIIS: error= 4.26D-04 at cycle   5 NSaved=   5.
 NSaved= 5 IEnMin= 5 EnMin= -305.889861486093     IErMin= 5 ErrMin= 4.26D-04
 ErrMax= 4.26D-04  0.00D+00 EMaxC= 1.00D-01 BMatC= 3.06D-04 BMatP= 4.27D-03
 IDIUse=3 WtCom= 9.96D-01 WtEn= 4.26D-03
 Coeff-Com: -0.191D-03-0.112D-01 0.527D-01 0.189D+00 0.770D+00
 Coeff-En:   0.000D+00 0.000D+00 0.000D+00 0.000D+00 0.100D+01
 Coeff:     -0.190D-03-0.112D-01 0.525D-01 0.188D+00 0.771D+00
 Gap=     0.351 Goal=   None    Shift=    0.000
 Gap=     0.273 Goal=   None    Shift=    0.000
 RMSDP=4.22D-05 MaxDP=1.53D-03 DE=-8.27D-04 OVMax= 6.45D-03

 Cycle   6  Pass 0  IDiag  1:
 RMSU=  2.59D-05    CP:  1.01D+00  9.81D-01  1.01D+00  9.61D-01  1.22D+00
 E= -305.889984159116     Delta-E=       -0.000122673022 Rises=F Damp=F
 DIIS: error= 3.47D-04 at cycle   6 NSaved=   6.
 NSaved= 6 IEnMin= 6 EnMin= -305.889984159116     IErMin= 6 ErrMin= 3.47D-04
 ErrMax= 3.47D-04  0.00D+00 EMaxC= 1.00D-01 BMatC= 1.22D-04 BMatP= 3.06D-04
 IDIUse=3 WtCom= 9.97D-01 WtEn= 3.47D-03
 Coeff-Com:  0.833D-02-0.233D-01-0.768D-01-0.906D-01 0.385D+00 0.797D+00
 Coeff-En:   0.000D+00 0.000D+00 0.000D+00 0.000D+00 0.000D+00 0.100D+01
 Coeff:      0.830D-02-0.232D-01-0.765D-01-0.902D-01 0.384D+00 0.798D+00
 Gap=     0.352 Goal=   None    Shift=    0.000
 Gap=     0.275 Goal=   None    Shift=    0.000
 RMSDP=3.12D-05 MaxDP=1.37D-03 DE=-1.23D-04 OVMax= 5.42D-03

 Cycle   7  Pass 0  IDiag  1:
 RMSU=  1.47D-05    CP:  1.00D+00  9.78D-01  1.02D+00  1.05D+00  1.56D+00
                    CP:  1.03D+00
 E= -305.890040828345     Delta-E=       -0.000056669230 Rises=F Damp=F
 DIIS: error= 1.29D-04 at cycle   7 NSaved=   7.
 NSaved= 7 IEnMin= 7 EnMin= -305.890040828345     IErMin= 7 ErrMin= 1.29D-04
 ErrMax= 1.29D-04  0.00D+00 EMaxC= 1.00D-01 BMatC= 2.15D-05 BMatP= 1.22D-04
 IDIUse=3 WtCom= 9.99D-01 WtEn= 1.29D-03
 Coeff-Com:  0.288D-02-0.493D-02-0.396D-01-0.917D-01-0.697D-01 0.320D+00
 Coeff-Com:  0.883D+00
 Coeff-En:   0.000D+00 0.000D+00 0.000D+00 0.000D+00 0.000D+00 0.000D+00
 Coeff-En:   0.100D+01
 Coeff:      0.288D-02-0.493D-02-0.395D-01-0.916D-01-0.696D-01 0.320D+00
 Coeff:      0.883D+00
 Gap=     0.352 Goal=   None    Shift=    0.000
 Gap=     0.276 Goal=   None    Shift=    0.000
 RMSDP=1.75D-05 MaxDP=5.28D-04 DE=-5.67D-05 OVMax= 3.05D-03

 Cycle   8  Pass 0  IDiag  1:
 RMSU=  5.21D-06    CP:  1.00D+00  9.78D-01  1.04D+00  1.09D+00  1.74D+00
                    CP:  1.29D+00  1.19D+00
 E= -305.890052878676     Delta-E=       -0.000012050331 Rises=F Damp=F
 DIIS: error= 2.86D-05 at cycle   8 NSaved=   8.
 NSaved= 8 IEnMin= 8 EnMin= -305.890052878676     IErMin= 8 ErrMin= 2.86D-05
 ErrMax= 2.86D-05  0.00D+00 EMaxC= 1.00D-01 BMatC= 1.23D-06 BMatP= 2.15D-05
 IDIUse=1 WtCom= 1.00D+00 WtEn= 0.00D+00
 Coeff-Com: -0.112D-02 0.273D-02 0.126D-01 0.150D-01-0.185D-01-0.107D+00
 Coeff-Com: -0.885D-01 0.119D+01
 Coeff:     -0.112D-02 0.273D-02 0.126D-01 0.150D-01-0.185D-01-0.107D+00
 Coeff:     -0.885D-01 0.119D+01
 Gap=     0.352 Goal=   None    Shift=    0.000
 Gap=     0.276 Goal=   None    Shift=    0.000
 RMSDP=5.49D-06 MaxDP=1.58D-04 DE=-1.21D-05 OVMax= 8.83D-04

 Initial convergence to 1.0D-05 achieved.  Increase integral accuracy.
 Cycle   9  Pass 1  IDiag  1:
 E= -305.890078403178     Delta-E=       -0.000025524501 Rises=F Damp=F
 DIIS: error= 1.75D-05 at cycle   1 NSaved=   1.
 NSaved= 1 IEnMin= 1 EnMin= -305.890078403178     IErMin= 1 ErrMin= 1.75D-05
 ErrMax= 1.75D-05  0.00D+00 EMaxC= 1.00D-01 BMatC= 1.12D-06 BMatP= 1.12D-06
 IDIUse=1 WtCom= 1.00D+00 WtEn= 0.00D+00
 Coeff-Com:  0.100D+01
 Coeff:      0.100D+01
 Gap=     0.352 Goal=   None    Shift=    0.000
 Gap=     0.276 Goal=   None    Shift=    0.000
 RMSDP=5.49D-06 MaxDP=1.58D-04 DE=-2.55D-05 OVMax= 3.71D-04

 Cycle  10  Pass 1  IDiag  1:
 RMSU=  4.59D-06    CP:  1.00D+00
 E= -305.890078679962     Delta-E=       -0.000000276784 Rises=F Damp=F
 DIIS: error= 1.10D-05 at cycle   2 NSaved=   2.
 NSaved= 2 IEnMin= 2 EnMin= -305.890078679962     IErMin= 2 ErrMin= 1.10D-05
 ErrMax= 1.10D-05  0.00D+00 EMaxC= 1.00D-01 BMatC= 2.76D-07 BMatP= 1.12D-06
 IDIUse=1 WtCom= 1.00D+00 WtEn= 0.00D+00
 Coeff-Com:  0.224D+00 0.776D+00
 Coeff:      0.224D+00 0.776D+00
 Gap=     0.352 Goal=   None    Shift=    0.000
 Gap=     0.276 Goal=   None    Shift=    0.000
 RMSDP=1.10D-06 MaxDP=2.89D-05 DE=-2.77D-07 OVMax= 1.98D-04

 Cycle  11  Pass 1  IDiag  1:
 RMSU=  1.07D-06    CP:  1.00D+00  1.05D+00
 E= -305.890078756011     Delta-E=       -0.000000076049 Rises=F Damp=F
 DIIS: error= 8.13D-06 at cycle   3 NSaved=   3.
 NSaved= 3 IEnMin= 3 EnMin= -305.890078756011     IErMin= 3 ErrMin= 8.13D-06
 ErrMax= 8.13D-06  0.00D+00 EMaxC= 1.00D-01 BMatC= 1.22D-07 BMatP= 2.76D-07
 IDIUse=1 WtCom= 1.00D+00 WtEn= 0.00D+00
 Coeff-Com: -0.579D-01 0.372D+00 0.686D+00
 Coeff:     -0.579D-01 0.372D+00 0.686D+00
 Gap=     0.352 Goal=   None    Shift=    0.000
 Gap=     0.276 Goal=   None    Shift=    0.000
 RMSDP=6.68D-07 MaxDP=2.61D-05 DE=-7.60D-08 OVMax= 1.64D-04

 Cycle  12  Pass 1  IDiag  1:
 RMSU=  5.76D-07    CP:  1.00D+00  1.12D+00  1.12D+00
 E= -305.890078802958     Delta-E=       -0.000000046947 Rises=F Damp=F
 DIIS: error= 4.31D-06 at cycle   4 NSaved=   4.
 NSaved= 4 IEnMin= 4 EnMin= -305.890078802958     IErMin= 4 ErrMin= 4.31D-06
 ErrMax= 4.31D-06  0.00D+00 EMaxC= 1.00D-01 BMatC= 1.56D-08 BMatP= 1.22D-07
 IDIUse=1 WtCom= 1.00D+00 WtEn= 0.00D+00
 Coeff-Com: -0.287D-01-0.993D-01 0.473D-01 0.108D+01
 Coeff:     -0.287D-01-0.993D-01 0.473D-01 0.108D+01
 Gap=     0.352 Goal=   None    Shift=    0.000
 Gap=     0.276 Goal=   None    Shift=    0.000
 RMSDP=5.88D-07 MaxDP=2.38D-05 DE=-4.69D-08 OVMax= 1.77D-04

 Cycle  13  Pass 1  IDiag  1:
 RMSU=  2.36D-07    CP:  1.00D+00  1.15D+00  1.49D+00  1.57D+00
 E= -305.890078822145     Delta-E=       -0.000000019187 Rises=F Damp=F
 DIIS: error= 2.79D-06 at cycle   5 NSaved=   5.
 NSaved= 5 IEnMin= 5 EnMin= -305.890078822145     IErMin= 5 ErrMin= 2.79D-06
 ErrMax= 2.79D-06  0.00D+00 EMaxC= 1.00D-01 BMatC= 8.47D-09 BMatP= 1.56D-08
 IDIUse=1 WtCom= 1.00D+00 WtEn= 0.00D+00
 Coeff-Com:  0.123D-01-0.259D+00-0.324D+00 0.629D+00 0.941D+00
 Coeff:      0.123D-01-0.259D+00-0.324D+00 0.629D+00 0.941D+00
 Gap=     0.352 Goal=   None    Shift=    0.000
 Gap=     0.276 Goal=   None    Shift=    0.000
 RMSDP=5.53D-07 MaxDP=2.35D-05 DE=-1.92D-08 OVMax= 1.74D-04

 Cycle  14  Pass 1  IDiag  1:
 RMSU=  1.24D-07    CP:  1.00D+00  1.19D+00  1.82D+00  2.21D+00  1.30D+00
 E= -305.890078831498     Delta-E=       -0.000000009353 Rises=F Damp=F
 DIIS: error= 1.03D-06 at cycle   6 NSaved=   6.
 NSaved= 6 IEnMin= 6 EnMin= -305.890078831498     IErMin= 6 ErrMin= 1.03D-06
 ErrMax= 1.03D-06  0.00D+00 EMaxC= 1.00D-01 BMatC= 1.21D-09 BMatP= 8.47D-09
 IDIUse=1 WtCom= 1.00D+00 WtEn= 0.00D+00
 Coeff-Com:  0.897D-02-0.993D-01-0.142D+00 0.157D+00 0.413D+00 0.662D+00
 Coeff:      0.897D-02-0.993D-01-0.142D+00 0.157D+00 0.413D+00 0.662D+00
 Gap=     0.352 Goal=   None    Shift=    0.000
 Gap=     0.276 Goal=   None    Shift=    0.000
 RMSDP=1.10D-07 MaxDP=5.12D-06 DE=-9.35D-09 OVMax= 3.91D-05

 Cycle  15  Pass 1  IDiag  1:
 RMSU=  6.11D-08    CP:  1.00D+00  1.19D+00  1.86D+00  2.32D+00  1.45D+00
                    CP:  1.21D+00
 E= -305.890078832350     Delta-E=       -0.000000000851 Rises=F Damp=F
 DIIS: error= 6.25D-07 at cycle   7 NSaved=   7.
 NSaved= 7 IEnMin= 7 EnMin= -305.890078832350     IErMin= 7 ErrMin= 6.25D-07
 ErrMax= 6.25D-07  0.00D+00 EMaxC= 1.00D-01 BMatC= 3.52D-10 BMatP= 1.21D-09
 IDIUse=1 WtCom= 1.00D+00 WtEn= 0.00D+00
 Coeff-Com: -0.124D-02 0.565D-01 0.616D-01-0.179D+00-0.198D+00 0.242D+00
 Coeff-Com:  0.102D+01
 Coeff:     -0.124D-02 0.565D-01 0.616D-01-0.179D+00-0.198D+00 0.242D+00
 Coeff:      0.102D+01
 Gap=     0.352 Goal=   None    Shift=    0.000
 Gap=     0.276 Goal=   None    Shift=    0.000
 RMSDP=1.11D-07 MaxDP=4.19D-06 DE=-8.51D-10 OVMax= 4.11D-05

 Cycle  16  Pass 1  IDiag  1:
 RMSU=  3.32D-08    CP:  1.00D+00  1.20D+00  1.90D+00  2.42D+00  1.63D+00
                    CP:  1.67D+00  1.46D+00
 E= -305.890078832842     Delta-E=       -0.000000000493 Rises=F Damp=F
 DIIS: error= 2.71D-07 at cycle   8 NSaved=   8.
 NSaved= 8 IEnMin= 8 EnMin= -305.890078832842     IErMin= 8 ErrMin= 2.71D-07
 ErrMax= 2.71D-07  0.00D+00 EMaxC= 1.00D-01 BMatC= 7.66D-11 BMatP= 3.52D-10
 IDIUse=1 WtCom= 1.00D+00 WtEn= 0.00D+00
 Coeff-Com: -0.302D-02 0.426D-01 0.558D-01-0.776D-01-0.162D+00-0.191D+00
 Coeff-Com:  0.204D+00 0.113D+01
 Coeff:     -0.302D-02 0.426D-01 0.558D-01-0.776D-01-0.162D+00-0.191D+00
 Coeff:      0.204D+00 0.113D+01
 Gap=     0.352 Goal=   None    Shift=    0.000
 Gap=     0.276 Goal=   None    Shift=    0.000
 RMSDP=6.40D-08 MaxDP=2.50D-06 DE=-4.93D-10 OVMax= 2.26D-05

 Cycle  17  Pass 1  IDiag  1:
 RMSU=  1.49D-08    CP:  1.00D+00  1.20D+00  1.91D+00  2.45D+00  1.73D+00
                    CP:  1.97D+00  1.97D+00  1.54D+00
 E= -305.890078832969     Delta-E=       -0.000000000127 Rises=F Damp=F
 DIIS: error= 9.55D-08 at cycle   9 NSaved=   9.
 NSaved= 9 IEnMin= 9 EnMin= -305.890078832969     IErMin= 9 ErrMin= 9.55D-08
 ErrMax= 9.55D-08  0.00D+00 EMaxC= 1.00D-01 BMatC= 7.93D-12 BMatP= 7.66D-11
 IDIUse=1 WtCom= 1.00D+00 WtEn= 0.00D+00
 Coeff-Com:  0.162D-03-0.958D-02-0.120D-01 0.339D-01 0.343D-01-0.650D-01
 Coeff-Com: -0.166D+00-0.679D-02 0.119D+01
 Coeff:      0.162D-03-0.958D-02-0.120D-01 0.339D-01 0.343D-01-0.650D-01
 Coeff:     -0.166D+00-0.679D-02 0.119D+01
 Gap=     0.352 Goal=   None    Shift=    0.000
 Gap=     0.276 Goal=   None    Shift=    0.000
 RMSDP=2.52D-08 MaxDP=9.80D-07 DE=-1.27D-10 OVMax= 8.33D-06

 Cycle  18  Pass 1  IDiag  1:
 RMSU=  4.68D-09    CP:  1.00D+00  1.20D+00  1.91D+00  2.47D+00  1.76D+00
                    CP:  2.07D+00  2.18D+00  1.90D+00  1.38D+00
 E= -305.890078832981     Delta-E=       -0.000000000011 Rises=F Damp=F
 DIIS: error= 2.31D-08 at cycle  10 NSaved=  10.
 NSaved=10 IEnMin=10 EnMin= -305.890078832981     IErMin=10 ErrMin= 2.31D-08
 ErrMax= 2.31D-08  0.00D+00 EMaxC= 1.00D-01 BMatC= 6.22D-13 BMatP= 7.93D-12
 IDIUse=1 WtCom= 1.00D+00 WtEn= 0.00D+00
 Coeff-Com:  0.299D-03-0.407D-02-0.557D-02 0.860D-02 0.144D-01 0.171D-01
 Coeff-Com: -0.172D-01-0.107D+00-0.131D-01 0.111D+01
 Coeff:      0.299D-03-0.407D-02-0.557D-02 0.860D-02 0.144D-01 0.171D-01
 Coeff:     -0.172D-01-0.107D+00-0.131D-01 0.111D+01
 Gap=     0.352 Goal=   None    Shift=    0.000
 Gap=     0.276 Goal=   None    Shift=    0.000
 RMSDP=5.13D-09 MaxDP=1.78D-07 DE=-1.14D-11 OVMax= 1.31D-06

 SCF Done:  E(UM062X) =  -305.890078833     A.U. after   18 cycles
            NFock= 18  Conv=0.51D-08     -V/T= 2.0051
 <Sx>= 0.0000 <Sy>= 0.0000 <Sz>= 0.5000 <S**2>= 0.7602 S= 0.5051
 <L.S>= 0.000000000000E+00
 KE= 3.043513853751D+02 PE=-1.082784367221D+03 EE= 2.908280473022D+02
 Annihilation of the first spin contaminant:
 S**2 before annihilation     0.7602,   after     0.7501
 Leave Link  502 at Sat Jun 22 13:10:40 2019, MaxMem=   671088640 cpu:            1217.1 elap:              60.9
 (Enter /shared/centos7/gaussian/g16/l801.exe)
 DoSCS=F DFT=T ScalE2(SS,OS)=  1.000000  1.000000
 Range of M.O.s used for correlation:     1   248
 NBasis=   248 NAE=    22 NBE=    21 NFC=     0 NFV=     0
 NROrb=    248 NOA=    22 NOB=    21 NVA=   226 NVB=   227
 Leave Link  801 at Sat Jun 22 13:10:40 2019, MaxMem=   671088640 cpu:               1.0 elap:               0.1
 (Enter /shared/centos7/gaussian/g16/l1101.exe)
 Using compressed storage, NAtomX=    12.
 Will process     13 centers per pass.
 Leave Link 1101 at Sat Jun 22 13:10:40 2019, MaxMem=   671088640 cpu:               7.6 elap:               0.4
 (Enter /shared/centos7/gaussian/g16/l1102.exe)
 Symmetrizing basis deriv contribution to polar:
 IMax=3 JMax=2 DiffMx= 0.00D+00
 Leave Link 1102 at Sat Jun 22 13:10:40 2019, MaxMem=   671088640 cpu:               1.0 elap:               0.1
 (Enter /shared/centos7/gaussian/g16/l1110.exe)
 Forming Gx(P) for the SCF density, NAtomX=    12.
 Integral derivatives from FoFJK, PRISM(SPDF).
 Do as many integral derivatives as possible in FoFJK.
 G2DrvN: MDV=     671087640.
 G2DrvN: will do    13 centers at a time, making    1 passes.
 Calling FoFCou, ICntrl=  3107 FMM=F I1Cent=   0 AccDes= 0.00D+00.
 FoFJK:  IHMeth= 1 ICntrl=    3107 DoSepK=F KAlg= 0 I1Cent=           0 FoldK=F
 IRaf=         0 NMat=       1 IRICut=       1 DoRegI=T DoRafI=F ISym2E= 0 IDoP0=0 IntGTp=1.
 FoFCou: FMM=F IPFlag=           0 FMFlag=      100000 FMFlg1=           0
         NFxFlg=           0 DoJE=F BraDBF=F KetDBF=F FulRan=T
         wScrn=  0.000000 ICntrl=      3107 IOpCl=  1 I1Cent=           0 NGrid=           0
         NMat0=    1 NMatS0=      1 NMatT0=    0 NMatD0=    1 NMtDS0=    0 NMtDT0=    0
 Symmetry not used in FoFCou.
 End of G2Drv F.D. properties file   721 does not exist.
 End of G2Drv F.D. properties file   722 does not exist.
 End of G2Drv F.D. properties file   788 does not exist.
 Leave Link 1110 at Sat Jun 22 13:12:27 2019, MaxMem=   671088640 cpu:            2143.6 elap:             107.2
 (Enter /shared/centos7/gaussian/g16/l1002.exe)
 Minotr:  UHF open shell wavefunction.
          IDoAtm=111111111111
          Direct CPHF calculation.
          Differentiating once with respect to nuclear coordinates.
          Requested convergence is 1.0D-08 RMS, and 1.0D-07 maximum.
          Secondary convergence is 1.0D-12 RMS, and 1.0D-12 maximum.
          NewPWx=T KeepS1=F KeepF1=F KeepIn=T MapXYZ=F SortEE=F KeepMc=T.
         3591 words used for storage of precomputed grid.
 Two-electron integrals replicated using symmetry.
          MDV=     671088640 using IRadAn=       1.
          Solving linear equations simultaneously, MaxMat=     380.
 FoF2E skips out because all densities are zero.
 CalDSu exits because no D1Ps are significant.
 FoFJK:  IHMeth= 1 ICntrl=       0 DoSepK=F KAlg= 0 I1Cent=           0 FoldK=F
 IRaf= 940000000 NMat=      36 IRICut=      90 DoRegI=T DoRafI=T ISym2E= 2 IDoP0=3 IntGTp=3.
 FoFCou: FMM=F IPFlag=           0 FMFlag=      100000 FMFlg1=           0
         NFxFlg=           0 DoJE=F BraDBF=F KetDBF=F FulRan=T
         wScrn=  0.000000 ICntrl=         0 IOpCl=  1 I1Cent=           0 NGrid=           0
         NMat0=   36 NMatS0=     36 NMatT0=    0 NMatD0=   36 NMtDS0=    0 NMtDT0=    0
 Integrals replicated using symmetry in FoFCou.
 Raff kept on since  92.24% of shell-pairs survive, threshold=   0.20 IRatSp=92.
          There are    39 degrees of freedom in the 1st order CPHF.  IDoFFX=6 NUNeed=     0.
     33 vectors produced by pass  0 Test12= 2.50D-14 2.56D-09 XBig12= 1.29D-01 1.42D-01.
 AX will form    33 AO Fock derivatives at one time.
     33 vectors produced by pass  1 Test12= 2.50D-14 2.56D-09 XBig12= 1.44D-02 3.34D-02.
     33 vectors produced by pass  2 Test12= 2.50D-14 2.56D-09 XBig12= 1.25D-03 7.40D-03.
     33 vectors produced by pass  3 Test12= 2.50D-14 2.56D-09 XBig12= 2.17D-05 8.35D-04.
     33 vectors produced by pass  4 Test12= 2.50D-14 2.56D-09 XBig12= 3.24D-07 9.39D-05.
     33 vectors produced by pass  5 Test12= 2.50D-14 2.56D-09 XBig12= 4.72D-09 1.05D-05.
     33 vectors produced by pass  6 Test12= 2.50D-14 2.56D-09 XBig12= 6.00D-11 1.07D-06.
     17 vectors produced by pass  7 Test12= 2.50D-14 2.56D-09 XBig12= 4.46D-13 6.72D-08.
      3 vectors produced by pass  8 Test12= 2.50D-14 2.56D-09 XBig12= 3.09D-15 6.33D-09.
 InvSVY:  IOpt=1 It=  1 EMax= 1.11D-15
 Solved reduced A of dimension   251 with    33 vectors.
 End of Minotr F.D. properties file   721 does not exist.
 End of Minotr F.D. properties file   722 does not exist.
 End of Minotr F.D. properties file   788 does not exist.
 Leave Link 1002 at Sat Jun 22 13:15:33 2019, MaxMem=   671088640 cpu:            3708.1 elap:             185.5
 (Enter /shared/centos7/gaussian/g16/l601.exe)
 Copying SCF densities to generalized density rwf, IOpCl= 1 IROHF=0.

 **********************************************************************

            Population analysis using the SCF density.

 **********************************************************************

 Orbital symmetries:
 Alpha Orbitals:
       Occupied  (A) (A) (A) (A) (A) (A) (A) (A) (A) (A) (A) (A)
                 (A) (A) (A) (A) (A) (A) (A) (A) (A) (A)
       Virtual   (A) (A) (A) (A) (A) (A) (A) (A) (A) (A) (A) (A)
                 (A) (A) (A) (A) (A) (A) (A) (A) (A) (A) (A) (A)
                 (A) (A) (A) (A) (A) (A) (A) (A) (A) (A) (A) (A)
                 (A) (A) (A) (A) (A) (A) (A) (A) (A) (A) (A) (A)
                 (A) (A) (A) (A) (A) (A) (A) (A) (A) (A) (A) (A)
                 (A) (A) (A) (A) (A) (A) (A) (A) (A) (A) (A) (A)
                 (A) (A) (A) (A) (A) (A) (A) (A) (A) (A) (A) (A)
                 (A) (A) (A) (A) (A) (A) (A) (A) (A) (A) (A) (A)
                 (A) (A) (A) (A) (A) (A) (A) (A) (A) (A) (A) (A)
                 (A) (A) (A) (A) (A) (A) (A) (A) (A) (A) (A) (A)
                 (A) (A) (A) (A) (A) (A) (A) (A) (A) (A) (A) (A)
                 (A) (A) (A) (A) (A) (A) (A) (A) (A) (A) (A) (A)
                 (A) (A) (A) (A) (A) (A) (A) (A) (A) (A) (A) (A)
                 (A) (A) (A) (A) (A) (A) (A) (A) (A) (A) (A) (A)
                 (A) (A) (A) (A) (A) (A) (A) (A) (A) (A) (A) (A)
                 (A) (A) (A) (A) (A) (A) (A) (A) (A) (A) (A) (A)
                 (A) (A) (A) (A) (A) (A) (A) (A) (A) (A) (A) (A)
                 (A) (A) (A) (A) (A) (A) (A) (A) (A) (A) (A) (A)
                 (A) (A) (A) (A) (A) (A) (A) (A) (A) (A)
 Beta  Orbitals:
       Occupied  (A) (A) (A) (A) (A) (A) (A) (A) (A) (A) (A) (A)
                 (A) (A) (A) (A) (A) (A) (A) (A) (A)
       Virtual   (A) (A) (A) (A) (A) (A) (A) (A) (A) (A) (A) (A)
                 (A) (A) (A) (A) (A) (A) (A) (A) (A) (A) (A) (A)
                 (A) (A) (A) (A) (A) (A) (A) (A) (A) (A) (A) (A)
                 (A) (A) (A) (A) (A) (A) (A) (A) (A) (A) (A) (A)
                 (A) (A) (A) (A) (A) (A) (A) (A) (A) (A) (A) (A)
                 (A) (A) (A) (A) (A) (A) (A) (A) (A) (A) (A) (A)
                 (A) (A) (A) (A) (A) (A) (A) (A) (A) (A) (A) (A)
                 (A) (A) (A) (A) (A) (A) (A) (A) (A) (A) (A) (A)
                 (A) (A) (A) (A) (A) (A) (A) (A) (A) (A) (A) (A)
                 (A) (A) (A) (A) (A) (A) (A) (A) (A) (A) (A) (A)
                 (A) (A) (A) (A) (A) (A) (A) (A) (A) (A) (A) (A)
                 (A) (A) (A) (A) (A) (A) (A) (A) (A) (A) (A) (A)
                 (A) (A) (A) (A) (A) (A) (A) (A) (A) (A) (A) (A)
                 (A) (A) (A) (A) (A) (A) (A) (A) (A) (A) (A) (A)
                 (A) (A) (A) (A) (A) (A) (A) (A) (A) (A) (A) (A)
                 (A) (A) (A) (A) (A) (A) (A) (A) (A) (A) (A) (A)
                 (A) (A) (A) (A) (A) (A) (A) (A) (A) (A) (A) (A)
                 (A) (A) (A) (A) (A) (A) (A) (A) (A) (A) (A) (A)
                 (A) (A) (A) (A) (A) (A) (A) (A) (A) (A) (A)
 The electronic state is 2-A.
 Alpha  occ. eigenvalues --  -19.68798 -19.68712 -19.62833 -10.59769 -10.55941
 Alpha  occ. eigenvalues --   -1.26942  -1.15556  -0.99211  -0.86272  -0.72796
 Alpha  occ. eigenvalues --   -0.62847  -0.59895  -0.56994  -0.54586  -0.52822
 Alpha  occ. eigenvalues --   -0.52089  -0.46330  -0.42413  -0.40206  -0.37767
 Alpha  occ. eigenvalues --   -0.36702  -0.29739
 Alpha virt. eigenvalues --    0.05447   0.06489   0.09523   0.11862   0.12777
 Alpha virt. eigenvalues --    0.13849   0.15127   0.20004   0.22113   0.23868
 Alpha virt. eigenvalues --    0.29638   0.30272   0.35089   0.38017   0.40411
 Alpha virt. eigenvalues --    0.43013   0.43720   0.46098   0.46683   0.47834
 Alpha virt. eigenvalues --    0.48522   0.50125   0.50855   0.54636   0.55484
 Alpha virt. eigenvalues --    0.57402   0.59925   0.60701   0.63551   0.66207
 Alpha virt. eigenvalues --    0.68827   0.70656   0.71831   0.73098   0.76017
 Alpha virt. eigenvalues --    0.76643   0.81134   0.83224   0.86383   0.88405
 Alpha virt. eigenvalues --    0.91366   0.94233   0.98371   0.99279   1.02250
 Alpha virt. eigenvalues --    1.06746   1.09158   1.11043   1.12267   1.13137
 Alpha virt. eigenvalues --    1.15464   1.16624   1.19069   1.21160   1.26487
 Alpha virt. eigenvalues --    1.28630   1.32986   1.33160   1.35954   1.37248
 Alpha virt. eigenvalues --    1.41791   1.42924   1.44219   1.49722   1.53450
 Alpha virt. eigenvalues --    1.55084   1.57690   1.58718   1.60649   1.72894
 Alpha virt. eigenvalues --    1.76595   1.87372   1.91661   1.93109   1.97730
 Alpha virt. eigenvalues --    1.98537   2.02002   2.07076   2.10304   2.15163
 Alpha virt. eigenvalues --    2.17143   2.19771   2.28003   2.32043   2.34297
 Alpha virt. eigenvalues --    2.38164   2.39973   2.42497   2.51869   2.54507
 Alpha virt. eigenvalues --    2.56189   2.62218   2.63749   2.71082   2.72783
 Alpha virt. eigenvalues --    2.80886   2.84352   2.84689   2.88589   2.93300
 Alpha virt. eigenvalues --    2.93552   2.94473   2.96800   2.99373   3.03686
 Alpha virt. eigenvalues --    3.05321   3.07802   3.10670   3.13252   3.17060
 Alpha virt. eigenvalues --    3.20701   3.21965   3.22596   3.26582   3.28957
 Alpha virt. eigenvalues --    3.30004   3.32331   3.38409   3.39925   3.40829
 Alpha virt. eigenvalues --    3.43852   3.44361   3.45871   3.48800   3.50446
 Alpha virt. eigenvalues --    3.54668   3.57164   3.61609   3.63242   3.66500
 Alpha virt. eigenvalues --    3.69467   3.71574   3.73530   3.76404   3.79082
 Alpha virt. eigenvalues --    3.80371   3.81117   3.82624   3.85617   3.87953
 Alpha virt. eigenvalues --    3.89362   3.92275   3.94192   3.95927   3.97135
 Alpha virt. eigenvalues --    3.99453   4.02786   4.04834   4.06654   4.07915
 Alpha virt. eigenvalues --    4.13642   4.14116   4.16876   4.21491   4.23811
 Alpha virt. eigenvalues --    4.24668   4.27435   4.32711   4.36004   4.41540
 Alpha virt. eigenvalues --    4.44092   4.44854   4.45560   4.61861   4.68435
 Alpha virt. eigenvalues --    4.70295   4.75081   4.75899   4.80020   4.83175
 Alpha virt. eigenvalues --    4.86233   4.86978   4.92116   4.94502   4.99558
 Alpha virt. eigenvalues --    5.01300   5.06426   5.09293   5.11016   5.12982
 Alpha virt. eigenvalues --    5.15917   5.23807   5.25741   5.32605   5.36357
 Alpha virt. eigenvalues --    5.40948   5.44833   5.55918   5.58535   5.71070
 Alpha virt. eigenvalues --    5.72835   5.78151   5.82013   5.94607   5.96801
 Alpha virt. eigenvalues --    6.11098   6.17093   6.18149   6.33179   6.35327
 Alpha virt. eigenvalues --    6.37927   6.47075   6.47838   6.54712   6.57368
 Alpha virt. eigenvalues --    6.60852   6.64138   6.66253   6.69170   6.69987
 Alpha virt. eigenvalues --    6.72739   6.83757   6.85949   6.88371   6.95100
 Alpha virt. eigenvalues --    7.11969   7.14138   7.20414   7.37653   7.43094
 Alpha virt. eigenvalues --    7.59033   9.88393  11.17227  11.80680  12.12757
 Alpha virt. eigenvalues --   12.80931
  Beta  occ. eigenvalues --  -19.68677 -19.67771 -19.62833 -10.59794 -10.55398
  Beta  occ. eigenvalues --   -1.25336  -1.15519  -0.96866  -0.84804  -0.71485
  Beta  occ. eigenvalues --   -0.61372  -0.58830  -0.54808  -0.53088  -0.51958
  Beta  occ. eigenvalues --   -0.50360  -0.45683  -0.41658  -0.37594  -0.36291
  Beta  occ. eigenvalues --   -0.35343
  Beta virt. eigenvalues --   -0.07752   0.05387   0.06574   0.09523   0.11982
  Beta virt. eigenvalues --    0.12756   0.14243   0.15536   0.20037   0.23016
  Beta virt. eigenvalues --    0.24326   0.30190   0.30545   0.35256   0.38111
  Beta virt. eigenvalues --    0.40802   0.43407   0.43892   0.46340   0.47462
  Beta virt. eigenvalues --    0.49216   0.49436   0.50789   0.51419   0.55498
  Beta virt. eigenvalues --    0.55904   0.57772   0.60146   0.61013   0.63983
  Beta virt. eigenvalues --    0.66642   0.68925   0.70929   0.72027   0.73269
  Beta virt. eigenvalues --    0.76366   0.76720   0.81370   0.83365   0.86902
  Beta virt. eigenvalues --    0.88592   0.91498   0.94357   0.98528   0.99528
  Beta virt. eigenvalues --    1.02347   1.06993   1.09381   1.11352   1.12864
  Beta virt. eigenvalues --    1.13250   1.16195   1.16620   1.19817   1.21691
  Beta virt. eigenvalues --    1.26894   1.28909   1.33090   1.34005   1.36191
  Beta virt. eigenvalues --    1.37409   1.42042   1.43343   1.44514   1.50138
  Beta virt. eigenvalues --    1.53756   1.55641   1.58147   1.59894   1.61151
  Beta virt. eigenvalues --    1.74466   1.77122   1.87507   1.92040   1.93847
  Beta virt. eigenvalues --    1.97816   1.99166   2.02285   2.07619   2.10704
  Beta virt. eigenvalues --    2.15715   2.17635   2.19976   2.28568   2.32883
  Beta virt. eigenvalues --    2.35166   2.39040   2.40757   2.43050   2.52876
  Beta virt. eigenvalues --    2.55160   2.57173   2.62888   2.65072   2.71971
  Beta virt. eigenvalues --    2.73856   2.82430   2.85184   2.85841   2.89896
  Beta virt. eigenvalues --    2.93974   2.95040   2.96325   2.97725   3.00478
  Beta virt. eigenvalues --    3.05813   3.06885   3.09143   3.11402   3.14763
  Beta virt. eigenvalues --    3.18139   3.21115   3.23158   3.23728   3.27030
  Beta virt. eigenvalues --    3.29371   3.31066   3.33216   3.39187   3.40234
  Beta virt. eigenvalues --    3.42002   3.44548   3.45313   3.46302   3.49037
  Beta virt. eigenvalues --    3.50666   3.55081   3.57326   3.62475   3.63973
  Beta virt. eigenvalues --    3.66830   3.69906   3.71851   3.73796   3.76949
  Beta virt. eigenvalues --    3.79659   3.80719   3.81568   3.83222   3.86277
  Beta virt. eigenvalues --    3.88599   3.89609   3.92642   3.94391   3.96210
  Beta virt. eigenvalues --    3.97584   3.99602   4.03708   4.05385   4.06928
  Beta virt. eigenvalues --    4.08424   4.13948   4.14398   4.17318   4.21826
  Beta virt. eigenvalues --    4.24795   4.25756   4.28062   4.33974   4.36424
  Beta virt. eigenvalues --    4.42012   4.44866   4.46073   4.47177   4.62427
  Beta virt. eigenvalues --    4.68848   4.71001   4.75988   4.76961   4.80859
  Beta virt. eigenvalues --    4.84095   4.87160   4.88224   4.93325   4.95422
  Beta virt. eigenvalues --    5.00713   5.02399   5.06986   5.09865   5.12010
  Beta virt. eigenvalues --    5.13727   5.17592   5.24796   5.28338   5.34467
  Beta virt. eigenvalues --    5.37579   5.42336   5.48561   5.56101   5.59026
  Beta virt. eigenvalues --    5.72955   5.74272   5.80100   5.82452   5.94940
  Beta virt. eigenvalues --    5.97251   6.12389   6.18119   6.18510   6.33691
  Beta virt. eigenvalues --    6.35965   6.38074   6.47150   6.48693   6.56105
  Beta virt. eigenvalues --    6.59019   6.62298   6.64171   6.67087   6.69297
  Beta virt. eigenvalues --    6.70955   6.72783   6.84114   6.86726   6.89300
  Beta virt. eigenvalues --    6.95164   7.12005   7.14222   7.21343   7.37687
  Beta virt. eigenvalues --    7.43406   7.59257   9.89150  11.17394  11.80731
  Beta virt. eigenvalues --   12.13655  12.81789
          Condensed to atoms (all electrons):
               1          2          3          4          5          6
     1  O    7.858484  -0.000028  -0.000167   0.328344  -0.057751  -0.032982
     2  O   -0.000028   7.897057   0.057744   0.001667   0.002505  -0.000050
     3  O   -0.000167   0.057744   8.086922  -0.000089  -0.082823   0.002421
     4  C    0.328344   0.001667  -0.000089   4.726301   0.287225   0.390766
     5  C   -0.057751   0.002505  -0.082823   0.287225   5.382837  -0.040853
     6  H   -0.032982  -0.000050   0.002421   0.390766  -0.040853   0.623804
     7  H   -0.046255  -0.000069  -0.000255   0.403358  -0.058783  -0.066254
     8  H    0.009667  -0.030284   0.193617  -0.010656   0.206719  -0.010626
     9  H   -0.004361   0.005280  -0.000437  -0.027059   0.367423   0.008766
    10  H    0.005334   0.001158  -0.003337  -0.025159   0.359224  -0.004113
    11  H    0.319581  -0.000024  -0.000006  -0.040611  -0.006743   0.010307
    12  H   -0.000026   0.312302  -0.033521  -0.000171  -0.001176   0.000044
               7          8          9         10         11         12
     1  O   -0.046255   0.009667  -0.004361   0.005334   0.319581  -0.000026
     2  O   -0.000069  -0.030284   0.005280   0.001158  -0.000024   0.312302
     3  O   -0.000255   0.193617  -0.000437  -0.003337  -0.000006  -0.033521
     4  C    0.403358  -0.010656  -0.027059  -0.025159  -0.040611  -0.000171
     5  C   -0.058783   0.206719   0.367423   0.359224  -0.006743  -0.001176
     6  H   -0.066254  -0.010626   0.008766  -0.004113   0.010307   0.000044
     7  H    0.681260   0.006564  -0.010218   0.002909  -0.009953  -0.000008
     8  H    0.006564   0.426518  -0.025204   0.002875  -0.001006  -0.004124
     9  H   -0.010218  -0.025204   0.587082  -0.034881   0.005576   0.001470
    10  H    0.002909   0.002875  -0.034881   0.546362  -0.000090  -0.000353
    11  H   -0.009953  -0.001006   0.005576  -0.000090   0.481304  -0.000000
    12  H   -0.000008  -0.004124   0.001470  -0.000353  -0.000000   0.457391
          Atomic-Atomic Spin Densities.
               1          2          3          4          5          6
     1  O   -0.001582   0.000001  -0.000031   0.004180   0.000429   0.001253
     2  O    0.000001   0.053833  -0.040211  -0.000342   0.016871  -0.000073
     3  O   -0.000031  -0.040211   0.552782   0.003766  -0.108246   0.001682
     4  C    0.004180  -0.000342   0.003766  -0.039768  -0.026724   0.002100
     5  C    0.000429   0.016871  -0.108246  -0.026724   0.750628  -0.007774
     6  H    0.001253  -0.000073   0.001682   0.002100  -0.007774   0.024552
     7  H   -0.002467   0.000054  -0.000625   0.018247  -0.023480  -0.010311
     8  H   -0.000377   0.008653  -0.035083   0.001255   0.062662  -0.001253
     9  H    0.000343  -0.002301   0.005157   0.002848  -0.006052   0.000600
    10  H   -0.000144  -0.000932   0.003038   0.002905  -0.005996   0.000959
    11  H   -0.000039   0.000003   0.000007   0.000303  -0.000325   0.000199
    12  H    0.000001   0.001024  -0.001101  -0.000013   0.000065  -0.000006
               7          8          9         10         11         12
     1  O   -0.002467  -0.000377   0.000343  -0.000144  -0.000039   0.000001
     2  O    0.000054   0.008653  -0.002301  -0.000932   0.000003   0.001024
     3  O   -0.000625  -0.035083   0.005157   0.003038   0.000007  -0.001101
     4  C    0.018247   0.001255   0.002848   0.002905   0.000303  -0.000013
     5  C   -0.023480   0.062662  -0.006052  -0.005996  -0.000325   0.000065
     6  H   -0.010311  -0.001253   0.000600   0.000959   0.000199  -0.000006
     7  H    0.062098   0.000580  -0.002442  -0.001220  -0.000603   0.000003
     8  H    0.000580  -0.062623   0.000835  -0.000429  -0.000111   0.000617
     9  H   -0.002442   0.000835  -0.032456   0.004452   0.000027  -0.000181
    10  H   -0.001220  -0.000429   0.004452  -0.038339   0.000020   0.000011
    11  H   -0.000603  -0.000111   0.000027   0.000020   0.000586   0.000000
    12  H    0.000003   0.000617  -0.000181   0.000011   0.000000  -0.002229
 Mulliken charges and spin densities:
               1          2
     1  O   -0.379840   0.001568
     2  O   -0.247258   0.036582
     3  O   -0.220070   0.381136
     4  C   -0.033914  -0.031244
     5  C   -0.357803   0.652058
     6  H    0.118771   0.011927
     7  H    0.097705   0.039836
     8  H    0.235940  -0.025275
     9  H    0.126563  -0.029169
    10  H    0.150071  -0.035676
    11  H    0.241664   0.000068
    12  H    0.268172  -0.001810
 Sum of Mulliken charges =  -0.00000   1.00000
 Mulliken charges and spin densities with hydrogens summed into heavy atoms:
               1          2
     1  O   -0.138176   0.001636
     2  O    0.020914   0.034771
     3  O    0.015870   0.355860
     4  C    0.182562   0.020519
     5  C   -0.081170   0.587213
 APT charges:
               1
     1  O   -0.530868
     2  O   -0.571732
     3  O   -0.097121
     4  C   -0.746049
     5  C   -0.592526
     6  H    0.337498
     7  H    0.409522
     8  H    0.147566
     9  H    0.276472
    10  H    0.345849
    11  H    0.491820
    12  H    0.529569
 Sum of APT charges =  -0.00000
 APT charges with hydrogens summed into heavy atoms:
               1
     1  O   -0.039048
     2  O   -0.042163
     3  O    0.050445
     4  C    0.000971
     5  C    0.029796
 Electronic spatial extent (au):  <R**2>=            693.1004
 Charge=             -0.0000 electrons
 Dipole moment (field-independent basis, Debye):
    X=             -0.8685    Y=              0.7949    Z=              2.5218  Tot=              2.7831
 Quadrupole moment (field-independent basis, Debye-Ang):
   XX=            -33.7502   YY=            -31.8068   ZZ=            -27.4717
   XY=             -5.4981   XZ=              1.7314   YZ=             -2.8960
 Traceless Quadrupole moment (field-independent basis, Debye-Ang):
   XX=             -2.7407   YY=             -0.7972   ZZ=              3.5379
   XY=             -5.4981   XZ=              1.7314   YZ=             -2.8960
 Octapole moment (field-independent basis, Debye-Ang**2):
  XXX=             13.2571  YYY=             -2.7136  ZZZ=              5.6841  XYY=              6.2775
  XXY=             -4.1188  XXZ=             16.5530  XZZ=             -1.3370  YZZ=             -4.5823
  YYZ=              1.5458  XYZ=             -1.7618
 Hexadecapole moment (field-independent basis, Debye-Ang**3):
 XXXX=           -648.8418 YYYY=           -106.0472 ZZZZ=            -63.4695 XXXY=            -37.4049
 XXXZ=              9.7930 YYYX=             -0.3468 YYYZ=             -4.6041 ZZZX=             -1.3771
 ZZZY=             -4.1695 XXYY=           -123.1959 XXZZ=            -95.6346 YYZZ=            -27.9639
 XXYZ=            -16.3914 YYXZ=             -0.0793 ZZXY=              2.5165
 N-N= 1.817148557104D+02 E-N=-1.082784369063D+03  KE= 3.043513853751D+02
  Exact polarizability:   0.000   0.000   0.000   0.000   0.000   0.000
 Approx polarizability:  64.755  -5.416  46.813   0.093   1.687  48.686
                          Isotropic Fermi Contact Couplings
        Atom                 a.u.       MegaHertz       Gauss      10(-4) cm-1
     1  O(17)              0.00060      -0.36208      -0.12920      -0.12078
     2  O(17)              0.00131      -0.79677      -0.28431      -0.26577
     3  O(17)              0.10189     -61.76584     -22.03959     -20.60287
     4  C(13)             -0.01647     -18.51546      -6.60678      -6.17609
     5  C(13)              0.18545     208.48129      74.39131      69.54187
     6  H(1)               0.00651      29.11827      10.39012       9.71281
     7  H(1)               0.02053      91.74749      32.73779      30.60367
     8  H(1)              -0.03259    -145.66588     -51.97721     -48.58891
     9  H(1)              -0.00404     -18.06021      -6.44433      -6.02424
    10  H(1)              -0.00878     -39.25754     -14.00807     -13.09491
    11  H(1)              -0.00008      -0.37235      -0.13287      -0.12420
    12  H(1)              -0.00079      -3.54325      -1.26432      -1.18190
 --------------------------------------------------------
       Center         ----  Spin Dipole Couplings  ----
                      3XX-RR        3YY-RR        3ZZ-RR
 --------------------------------------------------------
     1   Atom       -0.007323      0.014657     -0.007334
     2   Atom        0.209671     -0.114014     -0.095656
     3   Atom        0.797689     -0.469332     -0.328357
     4   Atom        0.032327     -0.016186     -0.016141
     5   Atom        0.035621      0.188891     -0.224512
     6   Atom        0.002573     -0.007311      0.004737
     7   Atom        0.008460     -0.000028     -0.008432
     8   Atom        0.116945     -0.033412     -0.083533
     9   Atom       -0.026880     -0.023902      0.050782
    10   Atom       -0.012823      0.038851     -0.026028
    11   Atom        0.003447     -0.000426     -0.003021
    12   Atom        0.000943     -0.007015      0.006072
 --------------------------------------------------------
                        XY            XZ            YZ
 --------------------------------------------------------
     1   Atom        0.007161     -0.000846     -0.005802
     2   Atom       -0.130721     -0.175930      0.010202
     3   Atom       -0.918775     -1.038242      0.562008
     4   Atom       -0.007223     -0.006757      0.002977
     5   Atom       -0.463037     -0.229701      0.266798
     6   Atom        0.001190      0.010932      0.003005
     7   Atom       -0.005604      0.002498      0.001382
     8   Atom       -0.117323     -0.092270      0.049059
     9   Atom       -0.020307      0.006414     -0.001717
    10   Atom        0.013740     -0.024023     -0.021043
    11   Atom        0.004834     -0.004162     -0.003019
    12   Atom       -0.005557      0.009301     -0.010023
 --------------------------------------------------------


 ---------------------------------------------------------------------------------
              Anisotropic Spin Dipole Couplings in Principal Axis System
 ---------------------------------------------------------------------------------

       Atom             a.u.   MegaHertz   Gauss  10(-4) cm-1        Axes

              Baa    -0.0100     0.721     0.257     0.241  0.7802 -0.3492 -0.5190
     1 O(17)  Bbb    -0.0081     0.589     0.210     0.197  0.5638  0.0329  0.8253
              Bcc     0.0181    -1.310    -0.468    -0.437  0.2711  0.9365 -0.2226
 
              Baa    -0.2079    15.040     5.367     5.017  0.4640  0.5730  0.6755
     2 O(17)  Bbb    -0.1170     8.464     3.020     2.823 -0.0320  0.7730 -0.6337
              Bcc     0.3248   -23.504    -8.387    -7.840  0.8852 -0.2725 -0.3770
 
              Baa    -0.9653    69.849    24.924    23.299  0.0295  0.7729 -0.6338
     3 O(17)  Bbb    -0.9391    67.950    24.246    22.666  0.6232  0.4816  0.6163
              Bcc     1.9044  -137.799   -49.170   -45.965  0.7815 -0.4132 -0.4674
 
              Baa    -0.0191    -2.569    -0.917    -0.857  0.0104  0.7218 -0.6920
     4 C(13)  Bbb    -0.0152    -2.045    -0.730    -0.682  0.2033  0.6760  0.7083
              Bcc     0.0344     4.614     1.646     1.539  0.9791 -0.1481 -0.1397
 
              Baa    -0.3593   -48.216   -17.205   -16.083  0.7168  0.2989  0.6300
     5 C(13)  Bbb    -0.3544   -47.555   -16.969   -15.863 -0.3445 -0.6337  0.6926
              Bcc     0.7137    95.771    34.173    31.946 -0.6062  0.7135  0.3513
 
              Baa    -0.0087    -4.625    -1.650    -1.543  0.4112  0.7586 -0.5054
     6 H(1)   Bbb    -0.0064    -3.406    -1.215    -1.136 -0.6285  0.6375  0.4456
              Bcc     0.0151     8.031     2.866     2.679  0.6602  0.1344  0.7389
 
              Baa    -0.0094    -5.014    -1.789    -1.673 -0.2153 -0.2673  0.9393
     7 H(1)   Bbb    -0.0020    -1.058    -0.378    -0.353  0.3828  0.8617  0.3330
              Bcc     0.0114     6.073     2.167     2.026  0.8984 -0.4312  0.0832
 
              Baa    -0.1199   -63.961   -22.823   -21.335  0.3124 -0.1114  0.9434
     8 H(1)   Bbb    -0.0975   -52.030   -18.566   -17.355  0.4631  0.8849 -0.0488
              Bcc     0.2174   115.991    41.389    38.691  0.8294 -0.4522 -0.3280
 
              Baa    -0.0459   -24.481    -8.735    -8.166  0.7354  0.6766 -0.0368
     9 H(1)   Bbb    -0.0056    -2.981    -1.064    -0.994 -0.6711  0.7348  0.0987
              Bcc     0.0515    27.462     9.799     9.160  0.0938 -0.0479  0.9944
 
              Baa    -0.0453   -24.173    -8.626    -8.063  0.5591  0.1141  0.8212
    10 H(1)   Bbb    -0.0064    -3.422    -1.221    -1.142  0.7672 -0.4468 -0.4602
              Bcc     0.0517    27.595     9.847     9.205  0.3144  0.8873 -0.3373
 
              Baa    -0.0052    -2.799    -0.999    -0.934  0.2698  0.3020  0.9143
    11 H(1)   Bbb    -0.0037    -1.964    -0.701    -0.655 -0.5940  0.7995 -0.0888
              Bcc     0.0089     4.763     1.700     1.589  0.7579  0.5192 -0.3951
 
              Baa    -0.0125    -6.651    -2.373    -2.219  0.0537  0.8894  0.4540
    12 H(1)   Bbb    -0.0058    -3.095    -1.104    -1.032  0.8463  0.2008 -0.4935
              Bcc     0.0183     9.746     3.478     3.251  0.5301 -0.4106  0.7419
 

 ---------------------------------------------------------------------------------

 No NMR shielding tensors so no spin-rotation constants.
 Leave Link  601 at Sat Jun 22 13:15:34 2019, MaxMem=   671088640 cpu:              16.1 elap:               0.9
 (Enter /shared/centos7/gaussian/g16/l701.exe)
 SCFChk:  SCF convergence  5.13D-09 required  1.00D-08
 ... and contract with generalized density number  0.
 Compute integral second derivatives.
 Entering OneElI...
 Calculate overlap and kinetic energy integrals
    NBasis = 280  MinDer = 2  MaxDer = 2
 Requested accuracy = 0.1000D-12
 PrmmSu-InSpLW:  IPartL=    0 NPrtUS=   20 NPrtUL=    1 DoSpLW=F IThBeg=    0 IThEnd=   19 NThAct=   20.
 PrsmSu:  NPrtUS=  20 ThrOK=T IAlg=1 NPAlg=1 LenDen=           0 ISkipM=0 DoSpLW=F IThBeg=    0 IThEnd=   19.
 Prism:   IPart=     0 DynPar=F LinDyn=F Incr=           2.
 PRISM was handed    33431568 working-precision words and  4241 shell-pairs
 PRISM was handed    33431568 working-precision words and  4241 shell-pairs
 PRISM was handed    33431568 working-precision words and  4241 shell-pairs
 PRISM was handed    33431568 working-precision words and  4241 shell-pairs
 PRISM was handed    33431568 working-precision words and  4241 shell-pairs
 PRISM was handed    33431568 working-precision words and  4241 shell-pairs
 PRISM was handed    33431568 working-precision words and  4241 shell-pairs
 PRISM was handed    33431568 working-precision words and  4241 shell-pairs
 PRISM was handed    33431568 working-precision words and  4241 shell-pairs
 PRISM was handed    33431568 working-precision words and  4241 shell-pairs
 PRISM was handed    33431568 working-precision words and  4241 shell-pairs
 PRISM was handed    33431568 working-precision words and  4241 shell-pairs
 PRISM was handed    33431568 working-precision words and  4241 shell-pairs
 PRISM was handed    33431568 working-precision words and  4241 shell-pairs
 PRISM was handed    33431568 working-precision words and  4241 shell-pairs
 PRISM was handed    33431568 working-precision words and  4241 shell-pairs
 PRISM was handed    33431568 working-precision words and  4241 shell-pairs
 PRISM was handed    33431568 working-precision words and  4241 shell-pairs
 PRISM was handed    33431568 working-precision words and  4241 shell-pairs
 PRISM was handed    33431568 working-precision words and  4241 shell-pairs
 IPart= 12 NShTot=         202 NBatch=          27 AvBLen=         7.5
 IPart=  3 NShTot=         234 NBatch=          51 AvBLen=         4.6
 IPart= 17 NShTot=         192 NBatch=          26 AvBLen=         7.4
 IPart= 10 NShTot=         205 NBatch=          30 AvBLen=         6.8
 IPart=  7 NShTot=         211 NBatch=          34 AvBLen=         6.2
 IPart= 19 NShTot=         190 NBatch=          25 AvBLen=         7.6
 IPart=  6 NShTot=         215 NBatch=          35 AvBLen=         6.1
 IPart= 15 NShTot=         194 NBatch=          26 AvBLen=         7.5
 IPart= 16 NShTot=         192 NBatch=          26 AvBLen=         7.4
 IPart= 18 NShTot=         191 NBatch=          26 AvBLen=         7.3
 IPart=  1 NShTot=         250 NBatch=          62 AvBLen=         4.0
 IPart=  2 NShTot=         237 NBatch=          53 AvBLen=         4.5
 IPart=  9 NShTot=         208 NBatch=          32 AvBLen=         6.5
 IPart=  5 NShTot=         221 NBatch=          40 AvBLen=         5.5
 IPart=  0 NShTot=         260 NBatch=          72 AvBLen=         3.6
 IPart= 14 NShTot=         197 NBatch=          27 AvBLen=         7.3
 IPart=  8 NShTot=         208 NBatch=          32 AvBLen=         6.5
 IPart=  4 NShTot=         231 NBatch=          48 AvBLen=         4.8
 IPart= 11 NShTot=         204 NBatch=          29 AvBLen=         7.0
 IPart= 13 NShTot=         199 NBatch=          27 AvBLen=         7.4
 PrSmSu:  NxtVal=             41.
 Entering OneElI...
 Calculate potential energy integrals
    NBasis = 280  MinDer = 2  MaxDer = 2
 Requested accuracy = 0.1000D-12
 PrmmSu-InSpLW:  IPartL=    0 NPrtUS=   20 NPrtUL=    1 DoSpLW=F IThBeg=    0 IThEnd=   19 NThAct=   20.
 PrsmSu:  NPrtUS=  20 ThrOK=T IAlg=1 NPAlg=1 LenDen=           0 ISkipM=0 DoSpLW=F IThBeg=    0 IThEnd=   19.
 Prism:   IPart=     0 DynPar=F LinDyn=F Incr=          23.
 PRISM was handed    33450632 working-precision words and  3932 shell-pairs
 PRISM was handed    33450632 working-precision words and  3932 shell-pairs
 PRISM was handed    33450632 working-precision words and  3932 shell-pairs
 PRISM was handed    33450632 working-precision words and  3932 shell-pairs
 PRISM was handed    33450632 working-precision words and  3932 shell-pairs
 PRISM was handed    33450632 working-precision words and  3932 shell-pairs
 PRISM was handed    33450632 working-precision words and  3932 shell-pairs
 PRISM was handed    33450632 working-precision words and  3932 shell-pairs
 PRISM was handed    33450632 working-precision words and  3932 shell-pairs
 PRISM was handed    33450632 working-precision words and  3932 shell-pairs
 PRISM was handed    33450632 working-precision words and  3932 shell-pairs
 PRISM was handed    33450632 working-precision words and  3932 shell-pairs
 PRISM was handed    33450632 working-precision words and  3932 shell-pairs
 PRISM was handed    33450632 working-precision words and  3932 shell-pairs
 PRISM was handed    33450632 working-precision words and  3932 shell-pairs
 PRISM was handed    33450632 working-precision words and  3932 shell-pairs
 PRISM was handed    33450632 working-precision words and  3932 shell-pairs
 PRISM was handed    33450632 working-precision words and  3932 shell-pairs
 PRISM was handed    33450632 working-precision words and  3932 shell-pairs
 PRISM was handed    33450632 working-precision words and  3932 shell-pairs
 IPart= 19 NShTot=        2100 NBatch=         175 AvBLen=        12.0
 IPart= 16 NShTot=        2172 NBatch=         181 AvBLen=        12.0
 IPart= 18 NShTot=        2112 NBatch=         176 AvBLen=        12.0
 IPart= 11 NShTot=        2280 NBatch=         190 AvBLen=        12.0
 IPart= 10 NShTot=        2292 NBatch=         191 AvBLen=        12.0
 IPart=  9 NShTot=        2352 NBatch=         196 AvBLen=        12.0
 IPart=  2 NShTot=        2640 NBatch=         220 AvBLen=        12.0
 IPart=  7 NShTot=        2388 NBatch=         199 AvBLen=        12.0
 IPart= 17 NShTot=        2112 NBatch=         176 AvBLen=        12.0
 IPart= 14 NShTot=        2220 NBatch=         185 AvBLen=        12.0
 IPart=  5 NShTot=        2388 NBatch=         199 AvBLen=        12.0
 IPart=  8 NShTot=        2388 NBatch=         199 AvBLen=        12.0
 IPart= 12 NShTot=        2244 NBatch=         187 AvBLen=        12.0
 IPart= 15 NShTot=        2196 NBatch=         183 AvBLen=        12.0
 IPart= 13 NShTot=        2232 NBatch=         186 AvBLen=        12.0
 IPart=  3 NShTot=        2544 NBatch=         212 AvBLen=        12.0
 IPart=  4 NShTot=        2508 NBatch=         209 AvBLen=        12.0
 IPart=  6 NShTot=        2388 NBatch=         199 AvBLen=        12.0
 IPart=  1 NShTot=        2748 NBatch=         229 AvBLen=        12.0
 IPart=  0 NShTot=        2880 NBatch=         240 AvBLen=        12.0
 PrSmSu:  NxtVal=            461.
 Polarizability after L701:
                1             2             3 
      1  0.000000D+00
      2  0.000000D+00  0.000000D+00
      3  0.000000D+00  0.000000D+00  0.000000D+00
 Dipole Derivatives after L701:
                 1             2             3             4             5 
      1  -0.259032D+00  0.102945D+00  0.107107D+01 -0.637803D+00  0.758896D+00
      2   0.786110D-01 -0.274892D+00  0.311829D+00  0.116915D+00 -0.506443D+00
      3   0.591333D-01  0.255469D-01 -0.105868D+01 -0.746612D-01  0.363439D+00
                 6             7             8             9            10 
      1  -0.109062D+01  0.935396D-01  0.891411D-01  0.186557D+00 -0.957523D+00
      2   0.288395D+00 -0.167219D+00 -0.195656D+00 -0.301610D-01  0.256585D+00
      3  -0.570950D+00 -0.614645D-01 -0.252962D-02 -0.189246D+00 -0.106609D-01
                11            12            13            14            15 
      1   0.492705D+00 -0.508661D+00 -0.149991D+00 -0.193561D+00  0.162456D+00
      2  -0.678710D+00  0.673770D-01 -0.479387D+00 -0.746434D+00 -0.502286D-02
      3  -0.397207D-01 -0.601916D+00 -0.135493D-01  0.116888D+00 -0.881152D+00
                16            17            18            19            20 
      1   0.145150D+00  0.208719D-01  0.590050D+00  0.651643D+00 -0.553128D+00
      2  -0.726018D-02  0.197458D+00 -0.846052D-01 -0.253297D+00  0.432574D+00
      3  -0.297309D-02  0.547748D-01  0.669887D+00 -0.113901D-01 -0.149973D-01
                21            22            23            24            25 
      1  -0.123915D+00  0.894514D-01  0.591526D-01  0.677462D-01  0.682212D-01
      2   0.612387D-01  0.976211D-01  0.121973D+00 -0.424635D-01  0.559101D-01
      3   0.144349D+00  0.686917D-01 -0.295831D-01  0.231272D+00  0.815890D-01
                26            27            28            29            30 
      1   0.936433D-02 -0.942666D-01  0.149532D+00  0.777801D-01 -0.379798D-01
      2   0.902709D-01  0.258251D+00  0.316493D+00  0.703134D+00 -0.286878D+00
      3  -0.499485D-01  0.670924D+00 -0.521844D-01 -0.964141D-01  0.184882D+00
                31            32            33            34            35 
      1   0.340510D+00  0.408414D-01 -0.105351D+01  0.466302D+00 -0.905008D+00
      2   0.275304D-01  0.295277D+00 -0.322679D+00 -0.425018D-01  0.561447D+00
      3  -0.559222D-01  0.454211D-02  0.839672D+00  0.733919D-01 -0.331997D+00
                36 
      1   0.831075D+00
      2  -0.215281D+00
      3   0.560958D+00
 Hessian after L701:
                1             2             3             4             5 
      1  0.109576D+02
      2 -0.296994D+01  0.771925D+01
      3  0.141747D+01  0.229100D+01  0.779222D+01
      4  0.162945D+00  0.498510D-01  0.304866D-01  0.674185D+01
      5  0.652106D-01 -0.832735D-01  0.132236D-01 -0.146222D+01  0.870648D+01
      6 -0.166375D-01 -0.128479D-02 -0.107058D+00 -0.464007D+01 -0.207313D+00
      7  0.347519D+00  0.466829D-01 -0.789516D-01 -0.230094D+01  0.231024D+01
      8  0.542844D-01 -0.161371D+00 -0.872221D-02  0.225511D+01 -0.466187D+01
      9 -0.100152D+00 -0.670157D-02 -0.167661D+00  0.401311D+01  0.220542D+01
     10 -0.630579D+01  0.262309D+01 -0.104270D+01  0.201496D+00 -0.123945D-01
     11  0.264314D+01 -0.141715D+01 -0.261906D+01  0.207787D-03 -0.105049D+00
     12 -0.108489D+01 -0.266251D+01 -0.617314D+01  0.389868D-01  0.664237D-03
     13  0.378958D+00  0.256881D+00  0.156350D+00  0.482384D+00 -0.239526D+00
     14  0.306890D+00 -0.650347D-01  0.210885D+00 -0.214115D+00 -0.305133D+00
     15  0.916242D-01  0.157250D+00 -0.232773D+00 -0.151309D-01 -0.122428D-02
     16  0.379187D-01 -0.619668D-01 -0.857701D-02  0.158580D-01 -0.960560D-03
     17 -0.750631D-01 -0.261287D+00  0.217459D+00 -0.940100D-03 -0.108698D-01
     18 -0.446709D-01  0.179839D+00  0.185993D+00  0.296648D-01  0.145062D-02
     19  0.196208D+00 -0.257303D+00  0.813092D-03  0.192910D-01 -0.611704D-02
     20 -0.273437D+00 -0.125018D-01  0.157759D+00 -0.156813D-01 -0.659888D-02
     21  0.174486D-01  0.138971D+00  0.769538D-01  0.568406D-03  0.246211D-04
     22  0.901766D-01  0.804666D-01 -0.156328D-01 -0.897501D-03 -0.761232D-02
     23  0.488872D-01 -0.547231D-01 -0.930064D-02 -0.202277D-01  0.755720D-01
     24 -0.251424D-01 -0.127464D-01 -0.675400D-01 -0.169749D+00 -0.549936D-02
     25  0.257278D-01  0.158640D-01  0.361824D-01  0.848527D-01 -0.377862D-01
     26  0.612113D-02 -0.504439D-01  0.428934D-02 -0.334544D-01 -0.492152D-01
     27  0.559782D-01  0.243562D-01  0.144324D-01 -0.853019D-01  0.204562D-01
     28  0.274437D-01  0.104838D+00 -0.183336D-01  0.397081D-01 -0.490914D-01
     29  0.111667D+00  0.969490D-01 -0.209953D-01 -0.101444D+00  0.158300D-01
     30 -0.283303D-01 -0.337521D-01 -0.421417D-01  0.404950D-01 -0.249626D-01
     31 -0.593577D+01  0.110828D+00 -0.483878D+00  0.156144D-01  0.567054D-02
     32  0.997478D-01 -0.570243D+01 -0.228884D+00  0.479432D-02 -0.661989D-02
     33 -0.301941D+00 -0.754268D-01 -0.127845D+01 -0.242845D-01 -0.793837D-02
     34  0.170875D-01  0.709856D-03  0.676860D-02 -0.546216D+01 -0.565407D+00
     35 -0.175044D-01 -0.798289D-02 -0.765182D-02 -0.461872D+00 -0.356926D+01
     36  0.192413D-01  0.100898D-02 -0.841030D-03  0.781225D+00 -0.199430D+01
                6             7             8             9            10 
      6  0.636656D+01
      7  0.401166D+01  0.140569D+01
      8  0.213920D+01 -0.105126D+01  0.802014D+01
      9 -0.203009D+01 -0.272650D+01 -0.244744D+01  0.527514D+01
     10  0.404440D-01  0.309929D+00 -0.138721D+00 -0.333405D-01  0.140515D+02
     11  0.704694D-02 -0.156102D+00 -0.149041D+00  0.343750D-02 -0.257748D+01
     12 -0.967587D-01 -0.904688D-01  0.200457D-01 -0.179846D+00 -0.430191D-01
     13 -0.454518D-01  0.274033D+00 -0.969230D-01 -0.164297D+00 -0.166552D+01
     14 -0.657363D-02 -0.911958D-01 -0.178330D+00  0.890235D-01  0.142285D+01
     15 -0.358958D+00 -0.145035D+00  0.881837D-01 -0.149902D+00  0.136574D+01
     16  0.106621D-01  0.828190D-01 -0.203855D-01  0.189295D-01 -0.389183D+01
     17  0.152789D-03 -0.215100D-01 -0.283172D-01 -0.231563D-02 -0.204292D-01
     18 -0.343117D-02  0.642245D-01 -0.102896D-01 -0.203455D-01 -0.695907D-01
     19 -0.422839D-02  0.311619D-01 -0.133024D-01 -0.339533D-02 -0.276095D+01
     20  0.964691D-03 -0.240892D-01 -0.160137D-02  0.443423D-02 -0.117431D+01
     21 -0.827193D-02 -0.265977D-02  0.226405D-02 -0.104027D-01 -0.175902D+00
     22 -0.205284D+00 -0.786973D-01 -0.905932D+00 -0.871673D+00  0.278949D-02
     23  0.529600D-03 -0.815020D+00 -0.302883D+01  0.336768D+00 -0.357970D-01
     24  0.208421D-01 -0.879800D+00  0.349000D+00 -0.291109D+01  0.163332D-01
     25 -0.416727D-01 -0.168771D-02 -0.629752D-02 -0.596494D-01  0.254678D-02
     26  0.136109D-01 -0.193015D-01 -0.418758D-01  0.244793D-01 -0.199351D-01
     27 -0.204357D-01 -0.920453D-01  0.357008D-01  0.817764D-01 -0.495275D-01
     28  0.160899D-01 -0.425274D-01 -0.107034D-01  0.151960D-01 -0.292721D-01
     29 -0.136202D-01 -0.783736D-01  0.824568D-01 -0.732526D-02 -0.745180D-01
     30 -0.411597D-01  0.232980D-01 -0.333971D-01 -0.510672D-01  0.121591D-01
     31 -0.671698D-02  0.223614D-01  0.208845D-02 -0.153118D-01  0.785508D-01
     32 -0.349711D-03  0.269803D-02 -0.118739D-01 -0.121211D-02  0.198769D-01
     33  0.345210D-02 -0.468374D-01 -0.340689D-02  0.767520D-02 -0.328361D-01
     34  0.881203D+00 -0.496609D-01 -0.679549D-01 -0.729160D-01  0.654427D-02
     35 -0.193236D+01 -0.102768D+00  0.160515D+00 -0.198563D+00 -0.122231D-01
     36 -0.372468D+01 -0.368868D-01 -0.131128D+00  0.155816D+00  0.122388D-01
               11            12            13            14            15 
     11  0.126349D+02
     12  0.193969D+01  0.164928D+02
     13  0.136787D+01  0.132401D+01  0.873119D+01
     14 -0.508944D+01  0.401600D+00 -0.104317D+01  0.121808D+02
     15  0.392985D+00 -0.505112D+01 -0.739868D+00 -0.195907D+00  0.120981D+02
     16 -0.203944D-01  0.375830D-01  0.129259D-01 -0.216016D-01 -0.116633D+00
     17 -0.384184D+01  0.378874D-01 -0.167358D-01  0.568697D-01 -0.266807D-01
     18  0.133608D+00 -0.138603D+01 -0.837059D-01 -0.216104D-01 -0.212358D-01
     19 -0.120975D+01 -0.207217D+00 -0.173658D+00  0.582028D-02  0.191394D-02
     20 -0.213213D+01  0.211228D+00  0.367877D-01  0.157443D+00  0.278490D-02
     21  0.173382D+00 -0.359415D+01 -0.736613D-02  0.986281D-02  0.132230D+00
     22  0.107288D-01  0.278483D-01 -0.107537D+01 -0.105763D+01 -0.472290D+00
     23 -0.101620D-01 -0.630163D-02 -0.108333D+01 -0.930253D+00  0.504663D+00
     24 -0.400479D-02 -0.104959D-01 -0.475609D+00  0.493667D+00 -0.178525D+01
     25  0.537162D-02 -0.783974D-01 -0.369683D+01 -0.276288D-01  0.389593D+00
     26  0.222355D-01 -0.271296D-01  0.444193D-03 -0.368021D+01 -0.126772D+00
     27  0.801460D-02 -0.146824D-01  0.423576D+00 -0.261045D+00 -0.135362D+01
     28 -0.760582D-01  0.260706D-01 -0.331422D+01  0.726863D+00 -0.374922D+00
     29 -0.190521D-01 -0.763238D-02  0.854047D+00 -0.211582D+01 -0.791029D+00
     30 -0.195242D-01  0.477326D-01 -0.392122D+00 -0.698352D+00 -0.328170D+01
[...]
    D6        1.15175   0.00000   0.00000   0.00073   0.00073   1.15248
    D7       -0.83936   0.00000   0.00000   0.00057   0.00057  -0.83879
    D8        3.06817  -0.00000   0.00000   0.00054   0.00054   3.06871
    D9       -0.91845   0.00000   0.00000   0.00071   0.00071  -0.91775
   D10       -2.90956   0.00000   0.00000   0.00055   0.00055  -2.90901
   D11        0.99796  -0.00000   0.00000   0.00053   0.00053   0.99849
   D12       -2.96306   0.00000   0.00000   0.00072   0.00072  -2.96234
   D13        1.32901   0.00000   0.00000   0.00057   0.00057   1.32958
   D14       -1.04665  -0.00000   0.00000   0.00054   0.00054  -1.04610
   D15        1.53443  -0.00000   0.00000  -0.00444  -0.00444   1.52998
   D16       -2.62047  -0.00000   0.00000  -0.00437  -0.00437  -2.62484
   D17       -0.56555  -0.00000   0.00000  -0.00431  -0.00431  -0.56986
         Item               Value     Threshold  Converged?
 Maximum Force            0.000012     0.000450     YES
 RMS     Force            0.000003     0.000300     YES
 Maximum Displacement     0.012039     0.001800     NO 
 RMS     Displacement     0.003811     0.001200     NO 
 Predicted change in Energy=-1.139509D-08
                           ----------------------------
                           ! Non-Optimized Parameters !
                           ! (Angstroms and Degrees)  !
 --------------------------                            --------------------------
 ! Name  Definition              Value          Derivative Info.                !
 --------------------------------------------------------------------------------
 ! R1    R(1,4)                  1.4108         -DE/DX =    0.0                 !
 ! R2    R(1,11)                 0.9601         -DE/DX =    0.0                 !
 ! R3    R(2,3)                  1.3886         -DE/DX =    0.0                 !
 ! R4    R(2,12)                 0.965          -DE/DX =    0.0                 !
 ! R5    R(3,8)                  1.1632         -DE/DX =    0.0                 !
 ! R6    R(4,5)                  1.4987         -DE/DX =    0.0                 !
 ! R7    R(4,6)                  1.09           -DE/DX =    0.0                 !
 ! R8    R(4,7)                  1.1001         -DE/DX =    0.0                 !
 ! R9    R(5,8)                  1.3467         -DE/DX =    0.0                 !
 ! R10   R(5,9)                  1.0884         -DE/DX =    0.0                 !
 ! R11   R(5,10)                 1.0874         -DE/DX =    0.0                 !
 ! A1    A(4,1,11)             108.8934         -DE/DX =    0.0                 !
 ! A2    A(3,2,12)             103.0235         -DE/DX =    0.0                 !
 ! A3    A(2,3,8)              104.197          -DE/DX =    0.0                 !
 ! A4    A(1,4,5)              113.1872         -DE/DX =    0.0                 !
 ! A5    A(1,4,6)              106.1869         -DE/DX =    0.0                 !
 ! A6    A(1,4,7)              110.9438         -DE/DX =    0.0                 !
 ! A7    A(5,4,6)              110.0276         -DE/DX =    0.0                 !
 ! A8    A(5,4,7)              109.3568         -DE/DX =    0.0                 !
 ! A9    A(6,4,7)              106.9136         -DE/DX =    0.0                 !
 ! A10   A(4,5,8)              105.0122         -DE/DX =    0.0                 !
 ! A11   A(4,5,9)              115.6363         -DE/DX =    0.0                 !
 ! A12   A(4,5,10)             115.5816         -DE/DX =    0.0                 !
 ! A13   A(8,5,9)              104.0861         -DE/DX =    0.0                 !
 ! A14   A(8,5,10)             100.5529         -DE/DX =    0.0                 !
 ! A15   A(9,5,10)             113.5334         -DE/DX =    0.0                 !
 ! A16   A(3,8,5)              172.6534         -DE/DX =    0.0                 !
 ! D1    D(11,1,4,5)            60.3671         -DE/DX =    0.0                 !
 ! D2    D(11,1,4,6)          -178.8168         -DE/DX =    0.0                 !
 ! D3    D(11,1,4,7)           -63.0016         -DE/DX =    0.0                 !
 ! D4    D(12,2,3,8)            97.7439         -DE/DX =    0.0                 !
 ! D5    D(2,3,8,5)             33.7287         -DE/DX =    0.0                 !
 ! D6    D(1,4,5,8)             66.0322         -DE/DX =    0.0                 !
 ! D7    D(1,4,5,9)            -48.059          -DE/DX =    0.0                 !
 ! D8    D(1,4,5,10)           175.8241         -DE/DX =    0.0                 !
 ! D9    D(6,4,5,8)            -52.583          -DE/DX =    0.0                 !
 ! D10   D(6,4,5,9)           -166.6742         -DE/DX =    0.0                 !
 ! D11   D(6,4,5,10)            57.209          -DE/DX =    0.0                 !
 ! D12   D(7,4,5,8)           -169.7293         -DE/DX =    0.0                 !
 ! D13   D(7,4,5,9)             76.1794         -DE/DX =    0.0                 !
 ! D14   D(7,4,5,10)           -59.9374         -DE/DX =    0.0                 !
 ! D15   D(4,5,8,3)             87.6615         -DE/DX =    0.0                 !
 ! D16   D(9,5,8,3)           -150.3922         -DE/DX =    0.0                 !
 ! D17   D(10,5,8,3)           -32.6503         -DE/DX =    0.0                 !
 --------------------------------------------------------------------------------
 GradGradGradGradGradGradGradGradGradGradGradGradGradGradGradGradGradGrad

 Leave Link  103 at Sat Jun 22 13:35:31 2019, MaxMem=   671088640 cpu:               0.8 elap:               0.1
 (Enter /shared/centos7/gaussian/g16/l9999.exe)

 ----------------------------------------------------------------------

 Electric dipole moment (input orientation):
 (Debye = 10**-18 statcoulomb cm , SI units = C m)
                  (au)            (Debye)         (10**-30 SI)
   Tot        0.140991D+01      0.358362D+01      0.119537D+02
   x         -0.641481D-01     -0.163048D+00     -0.543870D+00
   y          0.100090D+01      0.254404D+01      0.848599D+01
   z          0.990918D+00      0.251866D+01      0.840135D+01

 Dipole polarizability, Alpha (input orientation).
 (esu units = cm**3 , SI units = C**2 m**2 J**-1)
 Alpha(0;0):
               (au)            (10**-24 esu)      (10**-40 SI)
   iso        0.510164D+02      0.755985D+01      0.841147D+01
   aniso      0.345784D+02      0.512400D+01      0.570122D+01
   xx         0.705863D+02      0.104598D+02      0.116381D+02
   yx        -0.876037D+01     -0.129815D+01     -0.144439D+01
   yy         0.436746D+02      0.647191D+01      0.720098D+01
   zx        -0.507381D+01     -0.751861D+00     -0.836558D+00
   zy         0.169242D+01      0.250791D+00      0.279042D+00
   zz         0.387883D+02      0.574784D+01      0.639533D+01

 ----------------------------------------------------------------------

 Dipole orientation:
     8         -4.15418620         -1.10382284         -0.86473110
     8          4.48248786          0.56471189         -0.97067271
     8          2.53486120         -1.13599402         -1.41787691
     6         -2.94298968          1.00103512          0.23525714
     6         -0.66241625          0.30296761          1.76239360
     1         -2.39790364          2.23013428         -1.32525409
     1         -4.26354253          2.08133141          1.42322397
     1          1.00767218         -0.61104209          0.07335239
     1         -0.92264400         -1.24196895          3.09494862
     1          0.40615799          1.87981249          2.53302417
     1         -4.69859774         -2.22411056          0.45449616
     1          5.63859802         -0.39653329          0.06109419

 Electric dipole moment (dipole orientation):
 (Debye = 10**-18 statcoulomb cm , SI units = C m)
                  (au)            (Debye)         (10**-30 SI)
   Tot        0.140991D+01      0.358362D+01      0.119537D+02
   x          0.000000D+00      0.000000D+00      0.000000D+00
   y          0.000000D+00      0.000000D+00      0.000000D+00
   z          0.140991D+01      0.358362D+01      0.119537D+02

 Dipole polarizability, Alpha (dipole orientation).
 (esu units = cm**3 , SI units = C**2 m**2 J**-1)
 Alpha(0;0):
               (au)            (10**-24 esu)      (10**-40 SI)
   iso        0.510164D+02      0.755985D+01      0.841147D+01
   aniso      0.345784D+02      0.512400D+01      0.570122D+01
   xx         0.697207D+02      0.103315D+02      0.114954D+02
   yx        -0.187105D+01     -0.277261D+00     -0.308495D+00
   yy         0.394327D+02      0.584332D+01      0.650157D+01
   zx        -0.110570D+02     -0.163849D+01     -0.182306D+01
   zy         0.233040D+01      0.345329D+00      0.384231D+00
   zz         0.438959D+02      0.650470D+01      0.723746D+01

 ----------------------------------------------------------------------

 Test job not archived.
 1\1\GINC-C0279\Freq\UM062X\CC-pVTZ\C2H7O3(2)\HARMS.N\22-Jun-2019\0\\#P
  Geom=AllCheck Guess=TCheck SCRF=Check Test GenChk UM062X/CC-pVTZ Freq
 \\Gaussian input prepared by ASE\\0,2\O,-2.1858881174,-0.7777906731,-0
 .0069596799\O,2.3981855631,-0.1092654895,-0.465231935\O,1.3624951585,-
 0.9304333118,-0.0395502789\C,-1.5510861254,0.4317859373,-0.3594154316\
 C,-0.3895007919,0.7682969015,0.5257044489\H,-1.2130808507,0.3089421649
 ,-1.388406455\H,-2.2668017711,1.2672875553,-0.3552129762\H,0.524689506
 3,-0.1899807925,0.2810902469\H,-0.5746306141,0.6906953741,1.5954220253
 \H,0.1725503616,1.6559956061,0.2456770655\H,-2.5166354105,-0.705043290
 9,0.891432701\H,2.9747390918,-0.0681849812,0.307444269\\Version=EM64L-
 G16RevA.03\State=2-A\HF=-305.8936676\S2=0.760015\S2-1=0.\S2A=0.750049\
 RMSD=1.341e-09\RMSF=2.409e-06\ZeroPoint=0.0906832\Thermal=0.09824\Dipo
 le=-0.0641481,1.000901,0.9909177\DipoleDeriv=-0.7011395,-0.2200791,-0.
 0152806,-0.3630945,-0.7129526,0.1468671,0.0232674,0.1875454,-0.3512507
 ,-0.9361092,0.2788825,0.2234855,-0.5957313,-0.0795613,0.1195726,0.1690
 795,-0.1320713,-0.1697655,1.0066433,-0.44894,-0.3182576,0.2533258,-0.1
 854346,-0.0540279,-0.4640569,0.2389405,-0.1390088,0.3426239,0.2568575,
 -0.013747,0.5949327,0.5233204,-0.1163843,-0.0225279,-0.1102098,0.24787
 5,0.6373631,-0.3503609,-0.1835733,-0.6779506,0.2882732,0.1356831,-0.12
 13318,-0.0351248,0.078082,0.0418057,-0.0216658,0.0451789,-0.0429061,0.
 0398781,-0.0350078,0.0395734,0.0109059,-0.0700415,-0.1551383,0.1240127
 ,-0.01062,-0.0435482,-0.0905854,0.0325188,-0.0579659,0.0186322,0.05732
 95,-0.7855186,0.4183499,0.2014387,0.7689423,-0.2840872,-0.1633434,0.33
 57694,-0.1573031,0.0624102,-0.0757789,0.0231001,0.0738968,0.1098047,0.
 0105275,-0.0201257,-0.0055715,0.0101156,-0.0895294,-0.0665306,-0.01343
 37,0.0227152,-0.0131873,-0.0507725,-0.0048649,0.0284534,0.0200292,0.03
 38868,0.3733411,0.0045642,0.0117095,0.0422475,0.2483434,-0.0709101,0.0
 246585,-0.0449455,0.1655192,0.3184379,-0.0512874,-0.036946,-0.0328351,
 0.2930512,0.0300224,0.0506524,-0.0065143,0.1744932\Polar=70.5863149,-8
 .7603706,43.6746387,-5.0738079,1.6924196,38.7883273\Quadrupole=2.04673
 18,-2.4435657,0.396834,-0.5429385,0.4792194,-0.700928\PG=C01 [X(C2H7O3
 )]\NImag=1\\0.17852156,0.11228983,0.31521066,-0.20523449,-0.00075154,0
 .56466852,-0.00092922,-0.00218295,0.00002449,0.39783972,-0.00021050,-0
 .00156369,0.00012629,0.13569281,0.12336870,0.00023247,0.00083542,0.000
 05078,0.16804405,-0.05968123,0.43928167,0.00064291,0.00286082,0.000047
 60,-0.17328264,-0.09516198,0.02663268,0.20566977,0.00081275,0.00174601
 ,-0.00017064,-0.12849503,-0.13753837,0.03819845,0.11103204,0.23397527,
 0.00006477,-0.00167061,0.00043986,0.06038315,0.05749060,-0.05876329,-0
 .04100664,-0.03438085,0.04478179,-0.09641859,-0.06425840,0.03915935,-0
 .00228163,-0.00318374,0.00050381,0.00937573,-0.00272526,-0.00384730,0.
 50115302,-0.07862566,-0.20900336,0.04986279,0.00701258,0.00707848,-0.0
 0206370,-0.01425598,-0.00149955,0.00709947,-0.02464148,0.50389984,0.01
 959314,0.00993668,-0.10300365,0.00144565,0.00002631,-0.00053519,0.0001
 4882,-0.00108869,-0.00016317,-0.04634855,0.00758927,0.59668096,-0.0194
 4885,-0.01538438,-0.00838293,0.01788667,0.02169397,-0.00484447,-0.0941
 9462,0.04683655,0.03771992,-0.15075999,-0.03151900,-0.05919692,0.36445
 817,-0.03791518,-0.02393764,-0.01656037,-0.02070926,-0.02033773,0.0059
 1659,0.09930238,-0.04509568,-0.03897064,-0.03011333,-0.06166190,-0.007
 35803,0.19113945,0.36884417,0.01116198,0.00618974,0.00811667,-0.000160
 43,-0.00355129,0.00000962,0.02016835,-0.01409772,-0.00499350,-0.074422
 12,-0.01075181,-0.13927641,0.00254820,-0.06594002,0.55583778,-0.007833
 43,-0.00453231,0.01847495,0.00001843,-0.00007255,0.00006881,0.00043874
 ,-0.00002037,0.00065807,-0.07253538,0.01039384,0.07517365,0.00740522,-
 0.00189582,-0.02762314,0.08244279,-0.01650837,-0.00307198,0.03677488,-
 0.00041122,-0.00030835,0.00009499,0.00016148,0.00030744,-0.00028348,0.
 01531469,-0.05439814,-0.04531161,0.00376343,0.00037258,-0.00498559,-0.
 00513402,0.06393087,0.00639477,0.00516045,-0.00891525,-0.00024752,-0.0
 0004463,0.00010395,-0.00034253,0.00083037,0.00063100,0.07841368,-0.032
 89663,-0.28292741,0.00172842,-0.00285529,-0.01975154,-0.08432517,0.032
 42986,0.31004247,0.01332387,-0.02039086,0.00057432,-0.00154070,-0.0014
 8468,0.00035872,0.00257129,0.00071993,-0.00092995,-0.15855979,0.125206
 90,0.00798500,-0.02022730,0.01538264,-0.00317663,-0.00635598,0.0075079
 5,0.00043585,0.17154682,0.00726563,-0.03982114,0.00653024,-0.00155722,
 -0.00162302,0.00038235,0.00321249,0.00027715,-0.00151792,0.11427068,-0
 .16921334,-0.00617515,0.00099654,0.00479931,0.00011869,0.00520724,-0.0
 0262607,-0.00112133,-0.12694381,0.20435236,-0.00323889,0.01210697,0.00
 267485,-0.00130867,-0.00106668,0.00037173,0.00183295,0.00078109,-0.000
 56775,0.00449588,-0.00294415,-0.05094505,-0.01772811,0.01148235,-0.001
 74976,0.02111320,-0.02208922,0.00015522,-0.00296552,0.00111792,0.04933
 940,0.00213994,-0.00265844,0.00070136,-0.05306412,-0.03040722,0.016399
 83,0.06768464,-0.01540251,-0.03298380,-0.02339831,0.02435420,-0.002312
 05,0.05369179,-0.07408805,-0.01316244,0.00068406,-0.00034138,0.0012357
 2,-0.00328611,-0.00409705,-0.00260015,-0.02820370,-0.00062766,0.001819
 39,-0.00038532,0.00838473,0.03827029,-0.00229018,-0.05736753,-0.041287
 61,0.02453148,0.00983719,-0.01121005,0.00214173,-0.06291972,0.03866627
 ,0.01177463,-0.00044330,0.00049818,-0.00108819,0.00066911,0.00335386,0
 .00073985,0.08566693,-0.00366291,0.00049986,0.00119152,-0.00067278,0.0
 2123361,0.00940333,-0.00752130,-0.02589296,0.00364401,0.00006534,-0.00
 333351,0.00023360,0.00065881,-0.02641072,0.02715400,-0.01544235,-0.001
 04946,0.00056859,-0.00078962,-0.00113516,0.00097035,-0.00020608,0.0255
 6479,-0.03103830,0.02866335,0.00233914,0.00191374,0.00105853,-0.003653
 25,-0.00217706,0.00090742,0.00687325,-0.00065824,-0.00323349,0.0076673
 9,0.00066098,-0.02773020,-0.05018336,-0.01864699,0.05314579,-0.0040565
 5,-0.00151645,-0.00256682,0.00065768,0.00028492,0.00107399,-0.00901838
 ,0.00500163,0.01145740,0.04978563,0.00221733,0.00086616,-0.00005337,0.
 00358193,0.00326760,-0.00097378,-0.00881778,0.00056067,0.00351513,0.00
 028676,0.00178061,-0.00358355,-0.01663183,-0.03622002,0.01444163,-0.00
 077518,0.00048850,-0.00161265,-0.00059808,-0.00016561,-0.00052230,0.01
 140926,-0.00753156,-0.01236863,0.01444776,0.03501948,0.00024899,-0.000
 47346,0.00361621,-0.00024358,-0.00013850,0.00013192,0.00092637,-0.0007
 7980,0.00045122,0.00747433,0.00227831,-0.01676381,0.04549350,0.0238135
 3,-0.31667901,-0.00359602,-0.00017930,-0.00063265,-0.00040200,0.000028
 10,0.00020157,-0.00013555,0.00136287,-0.00372137,-0.04918078,-0.022934
 60,0.33761846,-0.00517351,-0.00288388,-0.00392295,-0.00109370,-0.00362
 601,0.00010017,0.00745672,-0.00071369,-0.00300739,-0.00502794,-0.01974
 092,0.01158910,-0.10774070,-0.12490619,0.03022687,0.00046164,0.0002756
 1,-0.00077127,0.00056360,0.00108633,0.00046860,-0.00648103,0.01522945,
 0.00160652,-0.00024172,-0.00405999,0.00041975,0.11667876,-0.00201537,0
 .00028977,-0.00041961,0.00173323,0.00376751,-0.00023199,-0.00676848,0.
 00063967,0.00246185,0.00173890,-0.00190563,0.00293144,-0.13662486,-0.2
 2812019,0.06550750,0.00007944,0.00003643,-0.00004283,-0.00072670,0.000
 01866,-0.00050502,0.00246366,-0.01716032,0.00029267,0.00100419,0.00174
 011,-0.00190007,0.13873196,0.24103076,-0.00487895,-0.00295675,-0.00070
 594,0.00024322,0.00077927,-0.00016772,-0.00239427,0.00023021,0.0005938
 5,-0.00496445,-0.01405507,0.00863102,0.03178759,0.06236870,-0.07061996
 ,0.00123435,0.00013696,0.00030431,-0.00010088,0.00067931,0.00018483,0.
 00246654,-0.00412413,-0.00072935,0.01369556,0.02448615,-0.00367377,-0.
 03633640,-0.06755934,0.06664529,-0.06751089,-0.00513383,0.15745472,0.0
 0074330,0.00047855,-0.00021614,-0.00100119,-0.00014580,0.00025524,-0.0
 0886188,0.00149781,0.01984036,-0.00027502,0.00164968,0.00189125,-0.000
 66837,-0.00316991,-0.00002892,0.00119263,0.00022675,-0.00124262,0.0004
 6127,-0.00060097,0.00005747,-0.00037630,-0.00079578,-0.00107794,0.0007
 4797,0.00012805,-0.00066277,0.07570843,0.01354151,-0.04241971,-0.07491
 380,0.00056309,0.00039090,-0.00009864,-0.00079093,-0.00033550,0.000340
 71,-0.01709953,-0.00325365,0.04068799,-0.00054404,0.00128735,0.0003745
 5,-0.00276171,-0.00517031,0.00133201,0.00053880,0.00053688,0.00087529,
 0.00071666,-0.00043604,-0.00033479,-0.00032084,0.00009926,-0.00103560,
 0.00038655,-0.00014124,-0.00022674,0.00583748,0.04939228,0.17511274,-0
 .02980487,-0.46622116,-0.00018354,-0.00015302,0.00001637,0.00031437,0.
 00009897,-0.00019450,0.00222548,-0.00315459,-0.01225710,-0.00033586,-0
 .00165972,0.00384252,-0.00008144,0.00279622,0.00185484,-0.00091453,-0.
 00129190,0.00037759,-0.00017921,0.00028887,0.00012634,0.00088885,-0.00
 002373,-0.00047092,-0.00064382,-0.00016870,-0.00046964,-0.17621325,0.0
 3307787,0.47333930,0.00034707,0.00036068,0.00004506,-0.18064287,-0.021
 54160,-0.20818736,-0.03223459,-0.01124037,-0.01407258,-0.00035263,-0.0
 0034327,-0.00018800,-0.00061200,0.00080068,-0.00059768,-0.00000117,0.0
 0005820,0.00007380,0.00011399,0.00004750,0.00009935,-0.00121005,-0.002
 82985,-0.00259784,0.00020647,-0.00026440,0.00007293,-0.00015010,0.0002
 5598,-0.00008953,-0.00015994,-0.00006702,0.00001021,0.21469583,-0.0002
 2430,-0.00011448,-0.00003955,-0.00361268,-0.01477232,0.01991173,-0.033
 40654,-0.01174949,-0.01861575,0.00057354,-0.00061331,0.00020361,-0.000
 80609,0.00140346,0.00091969,-0.00004525,-0.00005915,-0.00009113,0.0001
 1880,0.00011096,0.00002389,0.00238394,-0.00131950,0.00028365,0.0000063
 7,0.00009481,-0.00004149,0.00022077,-0.00019553,0.00024144,0.00002798,
 0.00004978,-0.00000539,0.03476347,0.02716476,0.00004362,0.00023643,-0.
 00004809,-0.24923042,-0.00319045,-0.37297854,0.01956526,0.00673462,0.0
 1771916,0.00064338,-0.00119749,-0.00009900,-0.00237861,0.00260890,0.00
 070595,-0.00004779,0.00004770,-0.00007531,0.00027079,0.00027934,0.0001
 6345,0.00500497,-0.00191332,-0.00043098,0.00048375,-0.00037030,-0.0000
 7784,0.00027081,-0.00036591,0.00000709,-0.00005740,-0.00007885,0.00005
 636,0.22543164,-0.00279069,0.35505775\\0.00000030,-0.00000051,0.000001
 77,0.00000247,-0.00000191,-0.00000012,0.00000478,-0.00000763,0.0000023
 2,-0.00000079,-0.00000011,0.00000042,-0.00000240,0.00000440,0.00000332
 ,-0.00000084,-0.00000227,0.00000013,-0.00000030,-0.00000058,-0.0000011
 1,-0.00000149,0.00000421,-0.00000446,0.00000058,0.00000272,-0.00000128
 ,-0.00000221,0.,-0.00000190,0.00000004,0.00000129,0.00000199,-0.000000
 15,0.00000038,-0.00000107\\\@


 I DO NOT KNOW WHAT I MAY APPEAR TO THE WORLD; BUT TO MYSELF
 I SEEM TO HAVE BEEN ONLY LIKE A BOY PLAYING ON THE SEASHORE,
 AND DIVERTING MYSELF IN NOW AND THEN FINDING A SMOOTHER PEBBLE
 OR A PRETTIER SHELL THAN ORDINARY, WHILST THE GREAT OCEAN OF
 TRUTH LAY ALL UNDISCOVERED BEFORE ME.
                                          -- NEWTON (1642-1726)
 Job cpu time:       0 days  2 hours 27 minutes 30.1 seconds.
 Elapsed time:       0 days  0 hours  7 minutes 23.4 seconds.
 File lengths (MBytes):  RWF=   1360 Int=      0 D2E=      0 Chk=     32 Scr=     32
 Normal termination of Gaussian 16 at Sat Jun 22 13:35:31 2019.
