 Entering Gaussian System, Link 0=g16
 Input=/scratch/harms.n//autotst-2.0-QMScratch/ts/CCO+[O]O_OO+[CH2]CO/conformers/CCO+[O]O_OO+[CH2]CO_forward_shell_4.com
 Output=/scratch/harms.n//autotst-2.0-QMScratch/ts/CCO+[O]O_OO+[CH2]CO/conformers/CCO+[O]O_OO+[CH2]CO_forward_shell_4.log
 Initial command:
 /shared/centos7/gaussian/g16/l1.exe "/scratch/harms.n/gauss_scrdir/Gau-22071.inp" -scrdir="/scratch/harms.n/gauss_scrdir/"
 Entering Link 1 = /shared/centos7/gaussian/g16/l1.exe PID=     22072.
  
 Copyright (c) 1988,1990,1992,1993,1995,1998,2003,2009,2016,
            Gaussian, Inc.  All Rights Reserved.
  
 This is part of the Gaussian(R) 16 program.  It is based on
 the Gaussian(R) 09 system (copyright 2009, Gaussian, Inc.),
 the Gaussian(R) 03 system (copyright 2003, Gaussian, Inc.),
 the Gaussian(R) 98 system (copyright 1998, Gaussian, Inc.),
 the Gaussian(R) 94 system (copyright 1995, Gaussian, Inc.),
 the Gaussian 92(TM) system (copyright 1992, Gaussian, Inc.),
 the Gaussian 90(TM) system (copyright 1990, Gaussian, Inc.),
 the Gaussian 88(TM) system (copyright 1988, Gaussian, Inc.),
 the Gaussian 86(TM) system (copyright 1986, Carnegie Mellon
 University), and the Gaussian 82(TM) system (copyright 1983,
 Carnegie Mellon University). Gaussian is a federally registered
 trademark of Gaussian, Inc.
  
 This software contains proprietary and confidential information,
 including trade secrets, belonging to Gaussian, Inc.
  
 This software is provided under written license and may be
 used, copied, transmitted, or stored only in accord with that
 written license.
  
 The following legend is applicable only to US Government
 contracts under FAR:
  
                    RESTRICTED RIGHTS LEGEND
  
 Use, reproduction and disclosure by the US Government is
 subject to restrictions as set forth in subparagraphs (a)
 and (c) of the Commercial Computer Software - Restricted
 Rights clause in FAR 52.227-19.
  
 Gaussian, Inc.
 340 Quinnipiac St., Bldg. 40, Wallingford CT 06492
  
  
 ---------------------------------------------------------------
 Warning -- This program may not be used in any manner that
 competes with the business of Gaussian, Inc. or will provide
 assistance to any competitor of Gaussian, Inc.  The licensee
 of this program is prohibited from giving any competitor of
 Gaussian, Inc. access to this program.  By using this program,
 the user acknowledges that Gaussian, Inc. is engaged in the
 business of creating and licensing software in the field of
 computational chemistry and represents and warrants to the
 licensee that it is not a competitor of Gaussian, Inc. and that
 it will not use this program in any manner prohibited above.
 ---------------------------------------------------------------
  

 Cite this work as:
 Gaussian 16, Revision A.03,
 M. J. Frisch, G. W. Trucks, H. B. Schlegel, G. E. Scuseria, 
 M. A. Robb, J. R. Cheeseman, G. Scalmani, V. Barone, 
 G. A. Petersson, H. Nakatsuji, X. Li, M. Caricato, A. V. Marenich, 
 J. Bloino, B. G. Janesko, R. Gomperts, B. Mennucci, H. P. Hratchian, 
 J. V. Ortiz, A. F. Izmaylov, J. L. Sonnenberg, D. Williams-Young, 
 F. Ding, F. Lipparini, F. Egidi, J. Goings, B. Peng, A. Petrone, 
 T. Henderson, D. Ranasinghe, V. G. Zakrzewski, J. Gao, N. Rega, 
 G. Zheng, W. Liang, M. Hada, M. Ehara, K. Toyota, R. Fukuda, 
 J. Hasegawa, M. Ishida, T. Nakajima, Y. Honda, O. Kitao, H. Nakai, 
 T. Vreven, K. Throssell, J. A. Montgomery, Jr., J. E. Peralta, 
 F. Ogliaro, M. J. Bearpark, J. J. Heyd, E. N. Brothers, K. N. Kudin, 
 V. N. Staroverov, T. A. Keith, R. Kobayashi, J. Normand, 
 K. Raghavachari, A. P. Rendell, J. C. Burant, S. S. Iyengar, 
 J. Tomasi, M. Cossi, J. M. Millam, M. Klene, C. Adamo, R. Cammi, 
 J. W. Ochterski, R. L. Martin, K. Morokuma, O. Farkas, 
 J. B. Foresman, and D. J. Fox, Gaussian, Inc., Wallingford CT, 2016.
 
 ******************************************
 Gaussian 16:  EM64L-G16RevA.03 25-Dec-2016
                22-Jun-2019 
 ******************************************
 %nprocshared=20
 Will use up to   20 processors via shared memory.
 %mem=5GB
 ----------------------------------------------------------------------
 #p m062x/cc-pVTZ Opt=(ModRedun,Loose,maxcycles=900) Int(Grid=SG1) scf=
 (maxcycle=900)
 ----------------------------------------------------------------------
 1/6=900,7=-1,18=120,19=15,26=2,38=1/1,3;
 2/9=110,12=2,17=6,18=5,40=1/2;
 3/5=16,6=1,11=2,25=1,30=1,71=1,74=-55,75=1/1,2,3;
 4//1;
 5/5=2,7=900,38=5/2;
 6/7=2,8=2,9=2,10=2,28=1/1;
 7//1,2,3,16;
 1/6=900,7=-1,18=20,19=15,26=2/3(2);
 2/9=110/2;
 99//99;
 2/9=110/2;
 3/5=16,6=1,11=2,25=1,30=1,71=1,74=-55,75=1/1,2,3;
 4/5=5,16=3,69=1/1;
 5/5=2,7=900,38=5/2;
 7//1,2,3,16;
 1/6=900,7=-1,18=20,19=15,26=2/3(-5);
 2/9=110/2;
 6/7=2,8=2,9=2,10=2,19=2,28=1/1;
 99/9=1/99;
 Leave Link    1 at Sat Jun 22 12:29:01 2019, MaxMem=   671088640 cpu:              22.3 elap:               1.3
 (Enter /shared/centos7/gaussian/g16/l101.exe)
 ------------------------------
 Gaussian input prepared by ASE
 ------------------------------
 Symbolic Z-matrix:
 Charge =  0 Multiplicity = 2
 O                    -2.69556   0.27138   0.84009 
 O                    -0.50152   4.94338   1.68192 
 O                    -1.55061   4.22134   1.35027 
 C                    -2.00104   1.22004   0.07785 
 C                    -0.90033   1.92871   0.85537 
 H                    -1.55751   0.73515  -0.82093 
 H                    -2.74441   1.95077  -0.30484 
 H                    -1.10188   3.28222   0.82668 
 H                     0.1146    1.75537   0.43883 
 H                    -0.90044   1.6622    1.93332 
 H                    -2.15687   0.11045   1.65846 
 H                    -0.36859   4.73357   2.6405 
 
 Add virtual bond connecting atoms H8         and O3         Dist= 2.20D+00.
 Add virtual bond connecting atoms H8         and C5         Dist= 2.59D+00.
 The following ModRedundant input section has been read:
 B       5       8 F                                                           
 B       3       8 F                                                           
 A       3       8       5 F                                                   
 
 ITRead=  0  0  0  0  0  0  0  0  0  0  0  0
 MicOpt= -1 -1 -1 -1 -1 -1 -1 -1 -1 -1 -1 -1
 NAtoms=     12 NQM=       12 NQMF=       0 NMMI=      0 NMMIF=      0
                NMic=       0 NMicF=      0.
                    Isotopes and Nuclear Properties:
 (Nuclear quadrupole moments (NQMom) in fm**2, nuclear magnetic moments (NMagM)
  in nuclear magnetons)

  Atom         1           2           3           4           5           6           7           8           9          10
 IAtWgt=          16          16          16          12          12           1           1           1           1           1
 AtmWgt=  15.9949146  15.9949146  15.9949146  12.0000000  12.0000000   1.0078250   1.0078250   1.0078250   1.0078250   1.0078250
 NucSpn=           0           0           0           0           0           1           1           1           1           1
 AtZEff=  -0.0000000  -0.0000000  -0.0000000  -0.0000000  -0.0000000  -0.0000000  -0.0000000  -0.0000000  -0.0000000  -0.0000000
 NQMom=    0.0000000   0.0000000   0.0000000   0.0000000   0.0000000   0.0000000   0.0000000   0.0000000   0.0000000   0.0000000
 NMagM=    0.0000000   0.0000000   0.0000000   0.0000000   0.0000000   2.7928460   2.7928460   2.7928460   2.7928460   2.7928460
 AtZNuc=   8.0000000   8.0000000   8.0000000   6.0000000   6.0000000   1.0000000   1.0000000   1.0000000   1.0000000   1.0000000

  Atom        11          12
 IAtWgt=           1           1
 AtmWgt=   1.0078250   1.0078250
 NucSpn=           1           1
 AtZEff=  -0.0000000  -0.0000000
 NQMom=    0.0000000   0.0000000
 NMagM=    2.7928460   2.7928460
 AtZNuc=   1.0000000   1.0000000
 Leave Link  101 at Sat Jun 22 12:29:01 2019, MaxMem=   671088640 cpu:               5.4 elap:               0.4
 (Enter /shared/centos7/gaussian/g16/l103.exe)

 GradGradGradGradGradGradGradGradGradGradGradGradGradGradGradGradGradGrad
 Berny optimization.
 Initialization pass.
                           ----------------------------
                           !    Initial Parameters    !
                           ! (Angstroms and Degrees)  !
 --------------------------                            --------------------------
 ! Name  Definition              Value          Derivative Info.                !
 --------------------------------------------------------------------------------
 ! R1    R(1,4)                  1.4012         estimate D2E/DX2                !
 ! R2    R(1,11)                 0.9929         estimate D2E/DX2                !
 ! R3    R(2,3)                  1.316          estimate D2E/DX2                !
 ! R4    R(2,12)                 0.9902         estimate D2E/DX2                !
 ! R5    R(3,8)                  1.1651         Frozen                          !
 ! R6    R(4,5)                  1.5226         estimate D2E/DX2                !
 ! R7    R(4,6)                  1.1134         estimate D2E/DX2                !
 ! R8    R(4,7)                  1.1104         estimate D2E/DX2                !
 ! R9    R(5,8)                  1.3687         Frozen                          !
 ! R10   R(5,9)                  1.1107         estimate D2E/DX2                !
 ! R11   R(5,10)                 1.1104         estimate D2E/DX2                !
 ! A1    A(4,1,11)             106.8103         estimate D2E/DX2                !
 ! A2    A(3,2,12)             103.5748         estimate D2E/DX2                !
 ! A3    A(2,3,8)              104.3866         estimate D2E/DX2                !
 ! A4    A(1,4,5)              113.3066         estimate D2E/DX2                !
 ! A5    A(1,4,6)              109.9827         estimate D2E/DX2                !
 ! A6    A(1,4,7)              107.5296         estimate D2E/DX2                !
 ! A7    A(5,4,6)              109.0829         estimate D2E/DX2                !
 ! A8    A(5,4,7)              110.7112         estimate D2E/DX2                !
 ! A9    A(6,4,7)              105.9663         estimate D2E/DX2                !
 ! A10   A(4,5,8)              110.0661         estimate D2E/DX2                !
 ! A11   A(4,5,9)              113.3561         estimate D2E/DX2                !
 ! A12   A(4,5,10)             112.5779         estimate D2E/DX2                !
 ! A13   A(8,5,9)              106.3217         estimate D2E/DX2                !
 ! A14   A(8,5,10)             104.932          estimate D2E/DX2                !
 ! A15   A(9,5,10)             109.0684         estimate D2E/DX2                !
 ! A16   A(3,8,5)              147.6051         Frozen                          !
 ! D1    D(11,1,4,5)           -14.2528         estimate D2E/DX2                !
 ! D2    D(11,1,4,6)           108.121          estimate D2E/DX2                !
 ! D3    D(11,1,4,7)          -136.9303         estimate D2E/DX2                !
 ! D4    D(12,2,3,8)           -99.427          estimate D2E/DX2                !
 ! D5    D(2,3,8,5)            113.8803         estimate D2E/DX2                !
 ! D6    D(1,4,5,8)           -123.1854         estimate D2E/DX2                !
 ! D7    D(1,4,5,9)            117.8916         estimate D2E/DX2                !
 ! D8    D(1,4,5,10)            -6.5073         estimate D2E/DX2                !
 ! D9    D(6,4,5,8)            113.9421         estimate D2E/DX2                !
 ! D10   D(6,4,5,9)             -4.9809         estimate D2E/DX2                !
 ! D11   D(6,4,5,10)          -129.3798         estimate D2E/DX2                !
 ! D12   D(7,4,5,8)             -2.288          estimate D2E/DX2                !
 ! D13   D(7,4,5,9)           -121.211          estimate D2E/DX2                !
 ! D14   D(7,4,5,10)           114.3901         estimate D2E/DX2                !
 ! D15   D(4,5,8,3)             94.1602         estimate D2E/DX2                !
 ! D16   D(9,5,8,3)           -142.6953         estimate D2E/DX2                !
 ! D17   D(10,5,8,3)           -27.2021         estimate D2E/DX2                !
 --------------------------------------------------------------------------------
 Trust Radius=3.00D-01 FncErr=1.00D-05 GrdErr=1.00D-04 EigMax=2.50D+02 EigMin=1.00D-04
 Number of steps in this run=    100 maximum allowed number of steps=    100.
 GradGradGradGradGradGradGradGradGradGradGradGradGradGradGradGradGradGrad

 Leave Link  103 at Sat Jun 22 12:29:01 2019, MaxMem=   671088640 cpu:               0.6 elap:               0.1
 (Enter /shared/centos7/gaussian/g16/l202.exe)
                          Input orientation:                          
 ---------------------------------------------------------------------
 Center     Atomic      Atomic             Coordinates (Angstroms)
 Number     Number       Type             X           Y           Z
 ---------------------------------------------------------------------
      1          8           0       -2.695558    0.271382    0.840089
      2          8           0       -0.501519    4.943381    1.681915
      3          8           0       -1.550611    4.221340    1.350269
      4          6           0       -2.001045    1.220039    0.077851
      5          6           0       -0.900328    1.928712    0.855366
      6          1           0       -1.557511    0.735148   -0.820933
      7          1           0       -2.744415    1.950770   -0.304838
      8          1           0       -1.101879    3.282220    0.826683
      9          1           0        0.114601    1.755370    0.438830
     10          1           0       -0.900440    1.662199    1.933317
     11          1           0       -2.156874    0.110447    1.658456
     12          1           0       -0.368589    4.733569    2.640500
 ---------------------------------------------------------------------
                    Distance matrix (angstroms):
                    1          2          3          4          5
     1  O    0.000000
     2  O    5.229727   0.000000
     3  O    4.144075   1.316026   0.000000
     4  C    1.401180   4.322600   3.290859   0.000000
     5  C    2.443323   3.151263   2.433915   1.522605   0.000000
     6  H    2.066210   5.008851   4.107031   1.113397   2.160200
     7  H    2.033122   4.234795   3.052874   1.110413   2.178811
     8  H    3.406631   1.962475   1.165096   2.371042   1.368733
     9  H    3.203158   3.476820   3.112019   2.211977   1.110689
    10  H    2.520312   3.314889   2.704047   2.202179   1.110408
    11  H    0.992878   5.108620   4.166771   1.937470   2.351584
    12  H    5.344846   0.990240   1.823252   4.645103   3.366998
                    6          7          8          9         10
     6  H    0.000000
     7  H    1.775622   0.000000
     8  H    3.067542   2.398129   0.000000
     9  H    2.328908   2.960607   1.990358   0.000000
    10  H    2.979440   2.914250   1.972228   1.809000   0.000000
    11  H    2.626187   2.754363   3.444562   3.058244   2.015468
    12  H    5.420556   4.697184   2.435993   3.735036   3.196293
                   11         12
    11  H    0.000000
    12  H    5.053280   0.000000
 Stoichiometry    C2H7O3(2)
 Framework group  C1[X(C2H7O3)]
 Deg. of freedom    30
 Full point group                 C1      NOp   1
 Largest Abelian subgroup         C1      NOp   1
 Largest concise Abelian subgroup C1      NOp   1
                         Standard orientation:                         
 ---------------------------------------------------------------------
 Center     Atomic      Atomic             Coordinates (Angstroms)
 Number     Number       Type             X           Y           Z
 ---------------------------------------------------------------------
      1          8           0        2.492572   -0.439331    0.391488
      2          8           0       -2.697455    0.105378    0.049491
      3          8           0       -1.613279   -0.615694   -0.141662
      4          6           0        1.582553    0.052721   -0.553528
      5          6           0        0.385794    0.756170    0.071973
      6          1           0        2.096824    0.756086   -1.246677
      7          1           0        1.252260   -0.804289   -1.177595
      8          1           0       -0.776747    0.168514   -0.348255
      9          1           0        0.311228    1.829069   -0.205443
     10          1           0        0.368479    0.665544    1.178541
     11          1           0        2.264569   -0.013073    1.258740
     12          1           0       -2.781395    0.141981    1.035488
 ---------------------------------------------------------------------
 Rotational constants (GHZ):          14.4660602           1.5661977           1.5302916
 Leave Link  202 at Sat Jun 22 12:29:01 2019, MaxMem=   671088640 cpu:               2.5 elap:               0.2
 (Enter /shared/centos7/gaussian/g16/l301.exe)
 Standard basis: CC-pVTZ (5D, 7F)
 Ernie: Thresh=  0.10000D-02 Tol=  0.10000D-05 Strict=F.
 Ernie:  15 primitive shells out of 186 were deleted.
 There are   280 symmetry adapted cartesian basis functions of A   symmetry.
 There are   248 symmetry adapted basis functions of A   symmetry.
   248 basis functions,   379 primitive gaussians,   280 cartesian basis functions
    22 alpha electrons       21 beta electrons
       nuclear repulsion energy       180.4690319757 Hartrees.
 IExCor= 4336 DFT=T Ex+Corr=M062X ExCW=0 ScaHFX=  0.540000
 ScaDFX=  1.000000  1.000000  1.000000  1.000000 ScalE2=  1.000000  1.000000
 IRadAn=      1 IRanWt=     -1 IRanGd=            0 ICorTp=0 IEmpDi=  4
 NAtoms=   12 NActive=   12 NUniq=   12 SFac= 1.00D+00 NAtFMM=   60 NAOKFM=F Big=F
 Integral buffers will be    131072 words long.
 Raffenetti 2 integral format.
 Two-electron integral symmetry is turned on.
 Leave Link  301 at Sat Jun 22 12:29:01 2019, MaxMem=   671088640 cpu:               1.4 elap:               0.1
 (Enter /shared/centos7/gaussian/g16/l302.exe)
 NPDir=0 NMtPBC=     1 NCelOv=     1 NCel=       1 NClECP=     1 NCelD=      1
         NCelK=      1 NCelE2=     1 NClLst=     1 CellRange=     0.0.
 One-electron integrals computed using PRISM.
 One-electron integral symmetry used in STVInt
 NBasis=   248 RedAO= T EigKep=  7.53D-04  NBF=   248
 NBsUse=   248 1.00D-06 EigRej= -1.00D+00 NBFU=   248
 Precomputing XC quadrature grid using
 IXCGrd= 4 IRadAn=           1 IRanWt=          -1 IRanGd=           0 AccXCQ= 0.00D+00.
 Generated NRdTot=       0 NPtTot=           0 NUsed=           0 NTot=          32
 NSgBfM=   280   280   280   280   280 MxSgAt=    12 MxSgA2=    12.
 Leave Link  302 at Sat Jun 22 12:29:05 2019, MaxMem=   671088640 cpu:              54.9 elap:               3.1
 (Enter /shared/centos7/gaussian/g16/l303.exe)
 DipDrv:  MaxL=1.
 Leave Link  303 at Sat Jun 22 12:29:05 2019, MaxMem=   671088640 cpu:               4.4 elap:               0.3
 (Enter /shared/centos7/gaussian/g16/l401.exe)
 ExpMin= 1.03D-01 ExpMax= 1.53D+04 ExpMxC= 5.22D+02 IAcc=1 IRadAn=         1 AccDes= 0.00D+00
 Harris functional with IExCor= 1009 and IRadAn=       1 diagonalized for initial guess.
 HarFok:  IExCor= 1009 AccDes= 0.00D+00 IRadAn=         1 IDoV= 1 UseB2=F ITyADJ=14
 ICtDFT=  3500011 ScaDFX=  1.000000  1.000000  1.000000  1.000000
 FoFCou: FMM=F IPFlag=           0 FMFlag=      100000 FMFlg1=           0
         NFxFlg=           0 DoJE=T BraDBF=F KetDBF=T FulRan=T
         wScrn=  0.000000 ICntrl=       500 IOpCl=  0 I1Cent=   200000004 NGrid=           0
         NMat0=    1 NMatS0=      1 NMatT0=    0 NMatD0=    1 NMtDS0=    0 NMtDT0=    0
 Petite list used in FoFCou.
 Harris En= -305.761045962886    
 JPrj=0 DoOrth=F DoCkMO=F.
 Initial guess <Sx>= 0.0000 <Sy>= 0.0000 <Sz>= 0.5000 <S**2>= 0.7500 S= 0.5000
 Leave Link  401 at Sat Jun 22 12:29:06 2019, MaxMem=   671088640 cpu:              15.8 elap:               0.9
 (Enter /shared/centos7/gaussian/g16/l502.exe)
 Integral symmetry usage will be decided dynamically.
 UHF open shell SCF:
 Using DIIS extrapolation, IDIIS=  1040.
 NGot=   671088640 LenX=   670923676 LenY=   670844835
 Requested convergence on RMS density matrix=1.00D-08 within 900 cycles.
 Requested convergence on MAX density matrix=1.00D-06.
 Requested convergence on             energy=1.00D-06.
 No special actions if energy rises.
 Fock matrices will be formed incrementally for  20 cycles.

 Cycle   1  Pass 1  IDiag  1:
 FoFJK:  IHMeth= 1 ICntrl=       0 DoSepK=F KAlg= 0 I1Cent=           0 FoldK=F
 IRaf= 940000000 NMat=       1 IRICut=       1 DoRegI=T DoRafI=F ISym2E= 0 IDoP0=0 IntGTp=1.
 FoFCou: FMM=F IPFlag=           0 FMFlag=      100000 FMFlg1=           0
         NFxFlg=           0 DoJE=F BraDBF=F KetDBF=F FulRan=T
         wScrn=  0.000000 ICntrl=         0 IOpCl=  1 I1Cent=           0 NGrid=           0
         NMat0=    1 NMatS0=      1 NMatT0=    0 NMatD0=    1 NMtDS0=    0 NMtDT0=    0
 Symmetry not used in FoFCou.
 E= -305.720503118354    
 DIIS: error= 3.07D-02 at cycle   1 NSaved=   1.
 NSaved= 1 IEnMin= 1 EnMin= -305.720503118354     IErMin= 1 ErrMin= 3.07D-02
 ErrMax= 3.07D-02  0.00D+00 EMaxC= 1.00D-01 BMatC= 8.19D-01 BMatP= 8.19D-01
 IDIUse=3 WtCom= 6.93D-01 WtEn= 3.07D-01
 Coeff-Com:  0.100D+01
 Coeff-En:   0.100D+01
 Coeff:      0.100D+01
 Gap=     0.377 Goal=   None    Shift=    0.000
 Gap=     0.323 Goal=   None    Shift=    0.000
 GapD=    0.323 DampG=1.000 DampE=0.500 DampFc=0.5000 IDamp=-1.
 Damping current iteration by 5.00D-01
 RMSDP=2.22D-03 MaxDP=8.34D-02              OVMax= 2.53D-01

 Cycle   2  Pass 1  IDiag  1:
 RMSU=  1.11D-03    CP:  1.00D+00
 E= -305.795813461222     Delta-E=       -0.075310342868 Rises=F Damp=T
 DIIS: error= 5.73D-03 at cycle   2 NSaved=   2.
 NSaved= 2 IEnMin= 2 EnMin= -305.795813461222     IErMin= 2 ErrMin= 5.73D-03
 ErrMax= 5.73D-03  0.00D+00 EMaxC= 1.00D-01 BMatC= 7.91D-02 BMatP= 8.19D-01
 IDIUse=3 WtCom= 9.43D-01 WtEn= 5.73D-02
 Coeff-Com: -0.808D-01 0.108D+01
 Coeff-En:   0.000D+00 0.100D+01
 Coeff:     -0.762D-01 0.108D+01
 Gap=     0.353 Goal=   None    Shift=    0.000
 Gap=     0.269 Goal=   None    Shift=    0.000
 RMSDP=5.16D-04 MaxDP=1.76D-02 DE=-7.53D-02 OVMax= 1.22D-01

 Cycle   3  Pass 1  IDiag  1:
 RMSU=  5.08D-04    CP:  1.01D+00  9.35D-01
 E= -305.871096812422     Delta-E=       -0.075283351200 Rises=F Damp=F
 DIIS: error= 3.04D-03 at cycle   3 NSaved=   3.
 NSaved= 3 IEnMin= 3 EnMin= -305.871096812422     IErMin= 3 ErrMin= 3.04D-03
 ErrMax= 3.04D-03  0.00D+00 EMaxC= 1.00D-01 BMatC= 2.02D-02 BMatP= 7.91D-02
 IDIUse=3 WtCom= 9.70D-01 WtEn= 3.04D-02
 Coeff-Com: -0.876D-01 0.348D+00 0.740D+00
 Coeff-En:   0.000D+00 0.000D+00 0.100D+01
 Coeff:     -0.849D-01 0.337D+00 0.748D+00
 Gap=     0.347 Goal=   None    Shift=    0.000
 Gap=     0.244 Goal=   None    Shift=    0.000
 RMSDP=2.31D-04 MaxDP=7.17D-03 DE=-7.53D-02 OVMax= 4.29D-02

 Cycle   4  Pass 1  IDiag  1:
 RMSU=  1.95D-04    CP:  1.00D+00  1.02D+00  8.37D-01
 E= -305.874695650434     Delta-E=       -0.003598838012 Rises=F Damp=F
 DIIS: error= 1.34D-03 at cycle   4 NSaved=   4.
 NSaved= 4 IEnMin= 4 EnMin= -305.874695650434     IErMin= 4 ErrMin= 1.34D-03
 ErrMax= 1.34D-03  0.00D+00 EMaxC= 1.00D-01 BMatC= 4.75D-03 BMatP= 2.02D-02
 IDIUse=3 WtCom= 9.87D-01 WtEn= 1.34D-02
 Coeff-Com: -0.296D-01 0.647D-01 0.358D+00 0.607D+00
 Coeff-En:   0.000D+00 0.000D+00 0.000D+00 0.100D+01
 Coeff:     -0.292D-01 0.639D-01 0.353D+00 0.612D+00
 Gap=     0.346 Goal=   None    Shift=    0.000
 Gap=     0.248 Goal=   None    Shift=    0.000
 RMSDP=8.92D-05 MaxDP=3.55D-03 DE=-3.60D-03 OVMax= 7.96D-03

 Cycle   5  Pass 1  IDiag  1:
 RMSU=  6.28D-05    CP:  1.00D+00  1.01D+00  9.47D-01  8.50D-01
 E= -305.875645857781     Delta-E=       -0.000950207347 Rises=F Damp=F
 DIIS: error= 6.10D-04 at cycle   5 NSaved=   5.
 NSaved= 5 IEnMin= 5 EnMin= -305.875645857781     IErMin= 5 ErrMin= 6.10D-04
 ErrMax= 6.10D-04  0.00D+00 EMaxC= 1.00D-01 BMatC= 2.01D-04 BMatP= 4.75D-03
 IDIUse=3 WtCom= 9.94D-01 WtEn= 6.10D-03
 Coeff-Com:  0.698D-02-0.266D-01-0.179D-01 0.444D-01 0.993D+00
 Coeff-En:   0.000D+00 0.000D+00 0.000D+00 0.000D+00 0.100D+01
 Coeff:      0.694D-02-0.265D-01-0.178D-01 0.441D-01 0.993D+00
 Gap=     0.347 Goal=   None    Shift=    0.000
 Gap=     0.251 Goal=   None    Shift=    0.000
 RMSDP=5.14D-05 MaxDP=1.71D-03 DE=-9.50D-04 OVMax= 1.05D-02

 Cycle   6  Pass 1  IDiag  1:
 RMSU=  2.62D-05    CP:  1.00D+00  1.01D+00  9.73D-01  1.02D+00  1.40D+00
 E= -305.875816516738     Delta-E=       -0.000170658958 Rises=F Damp=F
 DIIS: error= 2.49D-04 at cycle   6 NSaved=   6.
 NSaved= 6 IEnMin= 6 EnMin= -305.875816516738     IErMin= 6 ErrMin= 2.49D-04
 ErrMax= 2.49D-04  0.00D+00 EMaxC= 1.00D-01 BMatC= 9.06D-05 BMatP= 2.01D-04
 IDIUse=3 WtCom= 9.98D-01 WtEn= 2.49D-03
 Coeff-Com:  0.892D-02-0.220D-01-0.838D-01-0.165D+00 0.269D+00 0.993D+00
 Coeff-En:   0.000D+00 0.000D+00 0.000D+00 0.000D+00 0.000D+00 0.100D+01
 Coeff:      0.890D-02-0.219D-01-0.836D-01-0.165D+00 0.268D+00 0.993D+00
 Gap=     0.349 Goal=   None    Shift=    0.000
 Gap=     0.252 Goal=   None    Shift=    0.000
 RMSDP=3.79D-05 MaxDP=1.24D-03 DE=-1.71D-04 OVMax= 6.81D-03

 Cycle   7  Pass 1  IDiag  1:
 RMSU=  1.47D-05    CP:  1.00D+00  1.00D+00  9.94D-01  1.11D+00  1.83D+00
                    CP:  1.32D+00
 E= -305.875877169118     Delta-E=       -0.000060652380 Rises=F Damp=F
 DIIS: error= 1.47D-04 at cycle   7 NSaved=   7.
 NSaved= 7 IEnMin= 7 EnMin= -305.875877169118     IErMin= 7 ErrMin= 1.47D-04
 ErrMax= 1.47D-04  0.00D+00 EMaxC= 1.00D-01 BMatC= 2.54D-05 BMatP= 9.06D-05
 IDIUse=3 WtCom= 9.99D-01 WtEn= 1.47D-03
 Coeff-Com:  0.267D-02-0.386D-02-0.303D-01-0.903D-01-0.705D-01 0.498D+00
 Coeff-Com:  0.694D+00
 Coeff-En:   0.000D+00 0.000D+00 0.000D+00 0.000D+00 0.000D+00 0.000D+00
 Coeff-En:   0.100D+01
 Coeff:      0.266D-02-0.385D-02-0.303D-01-0.902D-01-0.704D-01 0.497D+00
 Coeff:      0.695D+00
 Gap=     0.349 Goal=   None    Shift=    0.000
 Gap=     0.253 Goal=   None    Shift=    0.000
 RMSDP=1.42D-05 MaxDP=4.19D-04 DE=-6.07D-05 OVMax= 3.50D-03

 Cycle   8  Pass 1  IDiag  1:
 RMSU=  6.23D-06    CP:  1.00D+00  1.00D+00  9.99D-01  1.13D+00  1.96D+00
                    CP:  1.63D+00  1.04D+00
 E= -305.875890234078     Delta-E=       -0.000013064959 Rises=F Damp=F
 DIIS: error= 4.89D-05 at cycle   8 NSaved=   8.
 NSaved= 8 IEnMin= 8 EnMin= -305.875890234078     IErMin= 8 ErrMin= 4.89D-05
 ErrMax= 4.89D-05  0.00D+00 EMaxC= 1.00D-01 BMatC= 2.98D-06 BMatP= 2.54D-05
 IDIUse=1 WtCom= 1.00D+00 WtEn= 0.00D+00
 Coeff-Com: -0.173D-02 0.389D-02 0.199D-01 0.342D-01-0.253D-01-0.255D+00
 Coeff-Com: -0.381D-01 0.126D+01
 Coeff:     -0.173D-02 0.389D-02 0.199D-01 0.342D-01-0.253D-01-0.255D+00
 Coeff:     -0.381D-01 0.126D+01
 Gap=     0.350 Goal=   None    Shift=    0.000
 Gap=     0.253 Goal=   None    Shift=    0.000
 RMSDP=1.01D-05 MaxDP=3.68D-04 DE=-1.31D-05 OVMax= 2.69D-03

 Cycle   9  Pass 1  IDiag  1:
 RMSU=  3.13D-06    CP:  1.00D+00  1.00D+00  1.00D+00  1.15D+00  2.03D+00
                    CP:  1.79D+00  1.35D+00  1.71D+00
 E= -305.875894217385     Delta-E=       -0.000003983307 Rises=F Damp=F
 DIIS: error= 3.04D-05 at cycle   9 NSaved=   9.
 NSaved= 9 IEnMin= 9 EnMin= -305.875894217385     IErMin= 9 ErrMin= 3.04D-05
 ErrMax= 3.04D-05  0.00D+00 EMaxC= 1.00D-01 BMatC= 8.98D-07 BMatP= 2.98D-06
 IDIUse=1 WtCom= 1.00D+00 WtEn= 0.00D+00
 Coeff-Com: -0.989D-03 0.194D-02 0.131D-01 0.274D-01 0.673D-02-0.191D+00
 Coeff-Com: -0.124D+00 0.440D+00 0.827D+00
 Coeff:     -0.989D-03 0.194D-02 0.131D-01 0.274D-01 0.673D-02-0.191D+00
 Coeff:     -0.124D+00 0.440D+00 0.827D+00
 Gap=     0.350 Goal=   None    Shift=    0.000
 Gap=     0.253 Goal=   None    Shift=    0.000
 RMSDP=4.33D-06 MaxDP=1.74D-04 DE=-3.98D-06 OVMax= 1.22D-03

 Cycle  10  Pass 1  IDiag  1:
 RMSU=  1.37D-06    CP:  1.00D+00  1.00D+00  1.00D+00  1.15D+00  2.06D+00
                    CP:  1.85D+00  1.49D+00  2.09D+00  1.38D+00
 E= -305.875895175439     Delta-E=       -0.000000958054 Rises=F Damp=F
 DIIS: error= 1.91D-05 at cycle  10 NSaved=  10.
 NSaved=10 IEnMin=10 EnMin= -305.875895175439     IErMin=10 ErrMin= 1.91D-05
 ErrMax= 1.91D-05  0.00D+00 EMaxC= 1.00D-01 BMatC= 2.49D-07 BMatP= 8.98D-07
 IDIUse=1 WtCom= 1.00D+00 WtEn= 0.00D+00
 Coeff-Com:  0.221D-03-0.603D-03-0.107D-02-0.722D-03 0.109D-01 0.251D-02
 Coeff-Com: -0.279D-01-0.235D+00 0.289D+00 0.963D+00
 Coeff:      0.221D-03-0.603D-03-0.107D-02-0.722D-03 0.109D-01 0.251D-02
 Coeff:     -0.279D-01-0.235D+00 0.289D+00 0.963D+00
 Gap=     0.350 Goal=   None    Shift=    0.000
 Gap=     0.253 Goal=   None    Shift=    0.000
 RMSDP=3.11D-06 MaxDP=1.40D-04 DE=-9.58D-07 OVMax= 9.82D-04

 Cycle  11  Pass 1  IDiag  1:
 RMSU=  8.50D-07    CP:  1.00D+00  1.00D+00  1.00D+00  1.15D+00  2.08D+00
                    CP:  1.88D+00  1.56D+00  2.34D+00  1.89D+00  1.49D+00
 E= -305.875895560498     Delta-E=       -0.000000385058 Rises=F Damp=F
 DIIS: error= 1.12D-05 at cycle  11 NSaved=  11.
 NSaved=11 IEnMin=11 EnMin= -305.875895560498     IErMin=11 ErrMin= 1.12D-05
 ErrMax= 1.12D-05  0.00D+00 EMaxC= 1.00D-01 BMatC= 9.02D-08 BMatP= 2.49D-07
 IDIUse=1 WtCom= 1.00D+00 WtEn= 0.00D+00
 Coeff-Com:  0.337D-03-0.717D-03-0.382D-02-0.737D-02 0.299D-02 0.532D-01
 Coeff-Com:  0.199D-01-0.233D+00-0.111D+00 0.442D+00 0.838D+00
 Coeff:      0.337D-03-0.717D-03-0.382D-02-0.737D-02 0.299D-02 0.532D-01
 Coeff:      0.199D-01-0.233D+00-0.111D+00 0.442D+00 0.838D+00
 Gap=     0.350 Goal=   None    Shift=    0.000
 Gap=     0.253 Goal=   None    Shift=    0.000
 RMSDP=1.70D-06 MaxDP=7.82D-05 DE=-3.85D-07 OVMax= 5.34D-04

 Cycle  12  Pass 1  IDiag  1:
 RMSU=  4.23D-07    CP:  1.00D+00  1.00D+00  1.00D+00  1.16D+00  2.08D+00
                    CP:  1.90D+00  1.59D+00  2.47D+00  2.18D+00  1.98D+00
                    CP:  1.35D+00
 E= -305.875895672721     Delta-E=       -0.000000112223 Rises=F Damp=F
 DIIS: error= 4.22D-06 at cycle  12 NSaved=  12.
 NSaved=12 IEnMin=12 EnMin= -305.875895672721     IErMin=12 ErrMin= 4.22D-06
 ErrMax= 4.22D-06  0.00D+00 EMaxC= 1.00D-01 BMatC= 2.12D-08 BMatP= 9.02D-08
 IDIUse=1 WtCom= 1.00D+00 WtEn= 0.00D+00
 Coeff-Com:  0.349D-04-0.520D-04-0.106D-02-0.218D-02-0.296D-02 0.178D-01
 Coeff-Com:  0.145D-01 0.616D-02-0.128D+00-0.179D+00 0.274D+00 0.100D+01
 Coeff:      0.349D-04-0.520D-04-0.106D-02-0.218D-02-0.296D-02 0.178D-01
 Coeff:      0.145D-01 0.616D-02-0.128D+00-0.179D+00 0.274D+00 0.100D+01
 Gap=     0.350 Goal=   None    Shift=    0.000
 Gap=     0.253 Goal=   None    Shift=    0.000
 RMSDP=9.68D-07 MaxDP=4.53D-05 DE=-1.12D-07 OVMax= 3.03D-04

 Cycle  13  Pass 1  IDiag  1:
 RMSU=  2.30D-07    CP:  1.00D+00  1.00D+00  1.00D+00  1.16D+00  2.09D+00
                    CP:  1.90D+00  1.61D+00  2.53D+00  2.34D+00  2.29D+00
                    CP:  1.84D+00  1.47D+00
 E= -305.875895704756     Delta-E=       -0.000000032035 Rises=F Damp=F
 DIIS: error= 2.08D-06 at cycle  13 NSaved=  13.
 NSaved=13 IEnMin=13 EnMin= -305.875895704756     IErMin=13 ErrMin= 2.08D-06
 ErrMax= 2.08D-06  0.00D+00 EMaxC= 1.00D-01 BMatC= 3.69D-09 BMatP= 2.12D-08
 IDIUse=1 WtCom= 1.00D+00 WtEn= 0.00D+00
 Coeff-Com: -0.112D-03 0.243D-03 0.105D-02 0.221D-02-0.132D-02-0.137D-01
 Coeff-Com: -0.714D-02 0.713D-01 0.237D-01-0.156D+00-0.206D+00 0.644D-01
 Coeff-Com:  0.122D+01
 Coeff:     -0.112D-03 0.243D-03 0.105D-02 0.221D-02-0.132D-02-0.137D-01
 Coeff:     -0.714D-02 0.713D-01 0.237D-01-0.156D+00-0.206D+00 0.644D-01
 Coeff:      0.122D+01
 Gap=     0.350 Goal=   None    Shift=    0.000
 Gap=     0.253 Goal=   None    Shift=    0.000
 RMSDP=5.46D-07 MaxDP=2.38D-05 DE=-3.20D-08 OVMax= 1.56D-04

 Cycle  14  Pass 1  IDiag  1:
 RMSU=  8.50D-08    CP:  1.00D+00  1.00D+00  1.00D+00  1.16D+00  2.09D+00
                    CP:  1.91D+00  1.62D+00  2.56D+00  2.41D+00  2.46D+00
                    CP:  2.17D+00  1.99D+00  1.48D+00
 E= -305.875895711411     Delta-E=       -0.000000006655 Rises=F Damp=F
 DIIS: error= 5.34D-07 at cycle  14 NSaved=  14.
 NSaved=14 IEnMin=14 EnMin= -305.875895711411     IErMin=14 ErrMin= 5.34D-07
 ErrMax= 5.34D-07  0.00D+00 EMaxC= 1.00D-01 BMatC= 2.93D-10 BMatP= 3.69D-09
 IDIUse=1 WtCom= 1.00D+00 WtEn= 0.00D+00
 Coeff-Com:  0.859D-06-0.157D-05 0.864D-04 0.201D-03 0.173D-03-0.156D-02
 Coeff-Com: -0.163D-02-0.402D-03 0.146D-01 0.181D-01-0.191D-01-0.130D+00
 Coeff-Com:  0.542D-02 0.111D+01
 Coeff:      0.859D-06-0.157D-05 0.864D-04 0.201D-03 0.173D-03-0.156D-02
 Coeff:     -0.163D-02-0.402D-03 0.146D-01 0.181D-01-0.191D-01-0.130D+00
 Coeff:      0.542D-02 0.111D+01
 Gap=     0.350 Goal=   None    Shift=    0.000
 Gap=     0.253 Goal=   None    Shift=    0.000
 RMSDP=1.14D-07 MaxDP=3.88D-06 DE=-6.66D-09 OVMax= 2.54D-05

 Cycle  15  Pass 1  IDiag  1:
 RMSU=  2.94D-08    CP:  1.00D+00  1.00D+00  1.00D+00  1.16D+00  2.08D+00
                    CP:  1.91D+00  1.62D+00  2.56D+00  2.42D+00  2.49D+00
                    CP:  2.24D+00  2.10D+00  1.70D+00  1.33D+00
 E= -305.875895711777     Delta-E=       -0.000000000366 Rises=F Damp=F
 DIIS: error= 1.78D-07 at cycle  15 NSaved=  15.
 NSaved=15 IEnMin=15 EnMin= -305.875895711777     IErMin=15 ErrMin= 1.78D-07
 ErrMax= 1.78D-07  0.00D+00 EMaxC= 1.00D-01 BMatC= 3.30D-11 BMatP= 2.93D-10
 IDIUse=1 WtCom= 1.00D+00 WtEn= 0.00D+00
 Coeff-Com:  0.115D-04-0.248D-04-0.110D-03-0.200D-03 0.826D-04 0.144D-02
 Coeff-Com:  0.594D-03-0.759D-02-0.112D-02 0.161D-01 0.231D-01-0.171D-01
 Coeff-Com: -0.128D+00 0.534D-01 0.106D+01
 Coeff:      0.115D-04-0.248D-04-0.110D-03-0.200D-03 0.826D-04 0.144D-02
 Coeff:      0.594D-03-0.759D-02-0.112D-02 0.161D-01 0.231D-01-0.171D-01
 Coeff:     -0.128D+00 0.534D-01 0.106D+01
 Gap=     0.350 Goal=   None    Shift=    0.000
 Gap=     0.253 Goal=   None    Shift=    0.000
 RMSDP=3.06D-08 MaxDP=9.95D-07 DE=-3.66D-10 OVMax= 6.16D-06

 Cycle  16  Pass 1  IDiag  1:
 RMSU=  8.62D-09    CP:  1.00D+00  1.00D+00  1.00D+00  1.16D+00  2.08D+00
                    CP:  1.91D+00  1.62D+00  2.56D+00  2.42D+00  2.49D+00
                    CP:  2.25D+00  2.12D+00  1.76D+00  1.50D+00  1.37D+00
 E= -305.875895711806     Delta-E=       -0.000000000029 Rises=F Damp=F
 DIIS: error= 5.91D-08 at cycle  16 NSaved=  16.
 NSaved=16 IEnMin=16 EnMin= -305.875895711806     IErMin=16 ErrMin= 5.91D-08
 ErrMax= 5.91D-08  0.00D+00 EMaxC= 1.00D-01 BMatC= 3.97D-12 BMatP= 3.30D-11
 IDIUse=1 WtCom= 1.00D+00 WtEn= 0.00D+00
 Coeff-Com: -0.141D-05 0.279D-05-0.120D-05 0.399D-05-0.189D-04 0.950D-04
 Coeff-Com:  0.311D-04 0.385D-03-0.877D-03-0.245D-02 0.878D-03 0.117D-01
 Coeff-Com:  0.363D-02-0.109D+00-0.496D-01 0.115D+01
 Coeff:     -0.141D-05 0.279D-05-0.120D-05 0.399D-05-0.189D-04 0.950D-04
 Coeff:      0.311D-04 0.385D-03-0.877D-03-0.245D-02 0.878D-03 0.117D-01
 Coeff:      0.363D-02-0.109D+00-0.496D-01 0.115D+01
 Gap=     0.350 Goal=   None    Shift=    0.000
 Gap=     0.253 Goal=   None    Shift=    0.000
 RMSDP=1.04D-08 MaxDP=3.19D-07 DE=-2.85D-11 OVMax= 1.72D-06

 Cycle  17  Pass 1  IDiag  1:
 RMSU=  2.84D-09    CP:  1.00D+00  1.00D+00  1.00D+00  1.16D+00  2.08D+00
                    CP:  1.91D+00  1.62D+00  2.56D+00  2.42D+00  2.49D+00
                    CP:  2.25D+00  2.13D+00  1.77D+00  1.55D+00  1.54D+00
                    CP:  1.36D+00
 E= -305.875895711810     Delta-E=       -0.000000000004 Rises=F Damp=F
 DIIS: error= 1.45D-08 at cycle  17 NSaved=  17.
 NSaved=17 IEnMin=17 EnMin= -305.875895711810     IErMin=17 ErrMin= 1.45D-08
 ErrMax= 1.45D-08  0.00D+00 EMaxC= 1.00D-01 BMatC= 2.84D-13 BMatP= 3.97D-12
 IDIUse=1 WtCom= 1.00D+00 WtEn= 0.00D+00
 Coeff-Com: -0.804D-06 0.176D-05 0.706D-05 0.115D-04-0.792D-05-0.102D-03
 Coeff-Com: -0.404D-04 0.558D-03 0.588D-04-0.142D-02-0.170D-02 0.127D-02
 Coeff-Com:  0.114D-01-0.320D-02-0.900D-01-0.197D-01 0.110D+01
 Coeff:     -0.804D-06 0.176D-05 0.706D-05 0.115D-04-0.792D-05-0.102D-03
 Coeff:     -0.404D-04 0.558D-03 0.588D-04-0.142D-02-0.170D-02 0.127D-02
 Coeff:      0.114D-01-0.320D-02-0.900D-01-0.197D-01 0.110D+01
 Gap=     0.350 Goal=   None    Shift=    0.000
 Gap=     0.253 Goal=   None    Shift=    0.000
 RMSDP=2.38D-09 MaxDP=9.32D-08 DE=-4.43D-12 OVMax= 4.27D-07

 SCF Done:  E(UM062X) =  -305.875895712     A.U. after   17 cycles
            NFock= 17  Conv=0.24D-08     -V/T= 2.0052
 <Sx>= 0.0000 <Sy>= 0.0000 <Sz>= 0.5000 <S**2>= 0.7601 S= 0.5050
 <L.S>= 0.000000000000E+00
 KE= 3.042855525870D+02 PE=-1.080027747784D+03 EE= 2.893972675095D+02
 Annihilation of the first spin contaminant:
 S**2 before annihilation     0.7601,   after     0.7500
 Leave Link  502 at Sat Jun 22 12:29:49 2019, MaxMem=   671088640 cpu:             841.0 elap:              43.0
 (Enter /shared/centos7/gaussian/g16/l601.exe)
 Copying SCF densities to generalized density rwf, IOpCl= 1 IROHF=0.

 **********************************************************************

            Population analysis using the SCF density.

 **********************************************************************

 Orbital symmetries:
 Alpha Orbitals:
       Occupied  (A) (A) (A) (A) (A) (A) (A) (A) (A) (A) (A) (A)
                 (A) (A) (A) (A) (A) (A) (A) (A) (A) (A)
       Virtual   (A) (A) (A) (A) (A) (A) (A) (A) (A) (A) (A) (A)
                 (A) (A) (A) (A) (A) (A) (A) (A) (A) (A) (A) (A)
                 (A) (A) (A) (A) (A) (A) (A) (A) (A) (A) (A) (A)
                 (A) (A) (A) (A) (A) (A) (A) (A) (A) (A) (A) (A)
                 (A) (A) (A) (A) (A) (A) (A) (A) (A) (A) (A) (A)
                 (A) (A) (A) (A) (A) (A) (A) (A) (A) (A) (A) (A)
                 (A) (A) (A) (A) (A) (A) (A) (A) (A) (A) (A) (A)
                 (A) (A) (A) (A) (A) (A) (A) (A) (A) (A) (A) (A)
                 (A) (A) (A) (A) (A) (A) (A) (A) (A) (A) (A) (A)
                 (A) (A) (A) (A) (A) (A) (A) (A) (A) (A) (A) (A)
                 (A) (A) (A) (A) (A) (A) (A) (A) (A) (A) (A) (A)
                 (A) (A) (A) (A) (A) (A) (A) (A) (A) (A) (A) (A)
                 (A) (A) (A) (A) (A) (A) (A) (A) (A) (A) (A) (A)
                 (A) (A) (A) (A) (A) (A) (A) (A) (A) (A) (A) (A)
                 (A) (A) (A) (A) (A) (A) (A) (A) (A) (A) (A) (A)
                 (A) (A) (A) (A) (A) (A) (A) (A) (A) (A) (A) (A)
                 (A) (A) (A) (A) (A) (A) (A) (A) (A) (A) (A) (A)
                 (A) (A) (A) (A) (A) (A) (A) (A) (A) (A) (A) (A)
                 (A) (A) (A) (A) (A) (A) (A) (A) (A) (A)
 Beta  Orbitals:
       Occupied  (A) (A) (A) (A) (A) (A) (A) (A) (A) (A) (A) (A)
                 (A) (A) (A) (A) (A) (A) (A) (A) (A)
       Virtual   (A) (A) (A) (A) (A) (A) (A) (A) (A) (A) (A) (A)
                 (A) (A) (A) (A) (A) (A) (A) (A) (A) (A) (A) (A)
                 (A) (A) (A) (A) (A) (A) (A) (A) (A) (A) (A) (A)
                 (A) (A) (A) (A) (A) (A) (A) (A) (A) (A) (A) (A)
                 (A) (A) (A) (A) (A) (A) (A) (A) (A) (A) (A) (A)
                 (A) (A) (A) (A) (A) (A) (A) (A) (A) (A) (A) (A)
                 (A) (A) (A) (A) (A) (A) (A) (A) (A) (A) (A) (A)
                 (A) (A) (A) (A) (A) (A) (A) (A) (A) (A) (A) (A)
                 (A) (A) (A) (A) (A) (A) (A) (A) (A) (A) (A) (A)
                 (A) (A) (A) (A) (A) (A) (A) (A) (A) (A) (A) (A)
                 (A) (A) (A) (A) (A) (A) (A) (A) (A) (A) (A) (A)
                 (A) (A) (A) (A) (A) (A) (A) (A) (A) (A) (A) (A)
                 (A) (A) (A) (A) (A) (A) (A) (A) (A) (A) (A) (A)
                 (A) (A) (A) (A) (A) (A) (A) (A) (A) (A) (A) (A)
                 (A) (A) (A) (A) (A) (A) (A) (A) (A) (A) (A) (A)
                 (A) (A) (A) (A) (A) (A) (A) (A) (A) (A) (A) (A)
                 (A) (A) (A) (A) (A) (A) (A) (A) (A) (A) (A) (A)
                 (A) (A) (A) (A) (A) (A) (A) (A) (A) (A) (A) (A)
                 (A) (A) (A) (A) (A) (A) (A) (A) (A) (A) (A)
 The electronic state is 2-A.
 Alpha  occ. eigenvalues --  -19.70719 -19.69787 -19.62518 -10.59498 -10.56486
 Alpha  occ. eigenvalues --   -1.32483  -1.14887  -0.98956  -0.84862  -0.72315
 Alpha  occ. eigenvalues --   -0.65309  -0.61335  -0.56188  -0.55479  -0.54329
 Alpha  occ. eigenvalues --   -0.51901  -0.45888  -0.42126  -0.40618  -0.38089
 Alpha  occ. eigenvalues --   -0.35697  -0.30056
 Alpha virt. eigenvalues --    0.04906   0.06640   0.08985   0.11410   0.12536
 Alpha virt. eigenvalues --    0.15513   0.19315   0.20745   0.21786   0.25101
 Alpha virt. eigenvalues --    0.29284   0.29757   0.35967   0.39154   0.40194
 Alpha virt. eigenvalues --    0.40741   0.42862   0.43536   0.45173   0.47181
 Alpha virt. eigenvalues --    0.48341   0.49906   0.51016   0.52603   0.53322
 Alpha virt. eigenvalues --    0.56405   0.56763   0.62082   0.65188   0.68131
 Alpha virt. eigenvalues --    0.68871   0.69633   0.70304   0.72541   0.75093
 Alpha virt. eigenvalues --    0.77086   0.77699   0.82183   0.86219   0.89996
 Alpha virt. eigenvalues --    0.94264   0.95870   0.97531   1.02209   1.03907
 Alpha virt. eigenvalues --    1.06186   1.06300   1.08056   1.09989   1.11510
 Alpha virt. eigenvalues --    1.13803   1.16850   1.22093   1.22845   1.27137
 Alpha virt. eigenvalues --    1.28073   1.30674   1.30996   1.31801   1.34012
 Alpha virt. eigenvalues --    1.36076   1.41180   1.42463   1.45345   1.50306
 Alpha virt. eigenvalues --    1.51902   1.54212   1.56851   1.66219   1.73618
 Alpha virt. eigenvalues --    1.77625   1.89495   1.91419   1.93937   1.96883
 Alpha virt. eigenvalues --    1.99350   2.01388   2.07707   2.08779   2.10326
 Alpha virt. eigenvalues --    2.19758   2.22145   2.22513   2.28544   2.29995
 Alpha virt. eigenvalues --    2.34677   2.42226   2.47739   2.50534   2.54662
 Alpha virt. eigenvalues --    2.56233   2.61023   2.63909   2.67752   2.70389
 Alpha virt. eigenvalues --    2.76334   2.78990   2.85747   2.87823   2.90414
 Alpha virt. eigenvalues --    2.91267   2.95648   2.98678   3.01189   3.02000
 Alpha virt. eigenvalues --    3.06224   3.09249   3.11639   3.14617   3.18151
 Alpha virt. eigenvalues --    3.19042   3.21170   3.24474   3.25604   3.26841
 Alpha virt. eigenvalues --    3.30996   3.32600   3.35827   3.37544   3.39954
 Alpha virt. eigenvalues --    3.42661   3.43235   3.46865   3.48689   3.51524
 Alpha virt. eigenvalues --    3.52063   3.54174   3.57883   3.60167   3.66433
 Alpha virt. eigenvalues --    3.68885   3.69769   3.70606   3.73784   3.74654
 Alpha virt. eigenvalues --    3.76567   3.77020   3.79472   3.83315   3.84690
 Alpha virt. eigenvalues --    3.85367   3.89123   3.90621   3.93913   3.95508
 Alpha virt. eigenvalues --    3.96804   4.00766   4.01559   4.04982   4.06991
 Alpha virt. eigenvalues --    4.09280   4.10904   4.13123   4.14652   4.20340
 Alpha virt. eigenvalues --    4.23460   4.26061   4.33164   4.35295   4.38838
 Alpha virt. eigenvalues --    4.39543   4.46237   4.48739   4.54805   4.57475
 Alpha virt. eigenvalues --    4.64353   4.68358   4.71713   4.77251   4.81556
 Alpha virt. eigenvalues --    4.84022   4.85700   4.86834   4.93379   4.95246
 Alpha virt. eigenvalues --    4.96409   4.99011   5.05944   5.07856   5.10660
 Alpha virt. eigenvalues --    5.12768   5.16820   5.20210   5.24016   5.28277
 Alpha virt. eigenvalues --    5.35495   5.43708   5.61543   5.63405   5.68928
 Alpha virt. eigenvalues --    5.71365   5.76816   5.87261   5.95876   6.02900
 Alpha virt. eigenvalues --    6.12574   6.16198   6.22645   6.29033   6.32751
 Alpha virt. eigenvalues --    6.39654   6.40951   6.42021   6.47186   6.54498
 Alpha virt. eigenvalues --    6.54727   6.57789   6.62094   6.63525   6.74199
 Alpha virt. eigenvalues --    6.76190   6.83292   6.86217   6.88557   6.96938
 Alpha virt. eigenvalues --    7.14007   7.20282   7.26276   7.29513   7.48915
 Alpha virt. eigenvalues --    7.65213   9.94676  10.95299  11.61243  11.63093
 Alpha virt. eigenvalues --   12.75145
  Beta  occ. eigenvalues --  -19.70452 -19.68799 -19.62482 -10.59519 -10.55961
  Beta  occ. eigenvalues --   -1.30590  -1.14736  -0.96357  -0.83459  -0.71306
  Beta  occ. eigenvalues --   -0.63474  -0.58507  -0.55696  -0.53828  -0.52785
  Beta  occ. eigenvalues --   -0.50908  -0.45200  -0.40604  -0.37878  -0.36238
  Beta  occ. eigenvalues --   -0.33882
  Beta virt. eigenvalues --   -0.08570   0.04915   0.06666   0.09050   0.11475
  Beta virt. eigenvalues --    0.12721   0.15690   0.19709   0.21329   0.22178
  Beta virt. eigenvalues --    0.25346   0.29488   0.29952   0.36191   0.39263
  Beta virt. eigenvalues --    0.40265   0.41069   0.42938   0.43905   0.45890
  Beta virt. eigenvalues --    0.48004   0.49047   0.50192   0.51642   0.52816
  Beta virt. eigenvalues --    0.53792   0.56786   0.57973   0.62172   0.65434
  Beta virt. eigenvalues --    0.68379   0.69012   0.70198   0.70442   0.72635
  Beta virt. eigenvalues --    0.75196   0.77026   0.77795   0.82325   0.86472
  Beta virt. eigenvalues --    0.90166   0.94276   0.95868   0.97885   1.02354
  Beta virt. eigenvalues --    1.03801   1.06177   1.06419   1.08575   1.10222
  Beta virt. eigenvalues --    1.11918   1.13948   1.17105   1.22318   1.23126
  Beta virt. eigenvalues --    1.27556   1.28529   1.30921   1.31084   1.31909
  Beta virt. eigenvalues --    1.34667   1.36368   1.41463   1.42900   1.45618
  Beta virt. eigenvalues --    1.51236   1.52714   1.54428   1.57084   1.66860
  Beta virt. eigenvalues --    1.74021   1.79248   1.89811   1.92195   1.94117
  Beta virt. eigenvalues --    1.97080   1.99754   2.01844   2.07898   2.09423
  Beta virt. eigenvalues --    2.10991   2.20127   2.22140   2.22679   2.28935
  Beta virt. eigenvalues --    2.30610   2.35614   2.42708   2.47805   2.50619
  Beta virt. eigenvalues --    2.55433   2.57084   2.61794   2.64868   2.67671
  Beta virt. eigenvalues --    2.71437   2.76704   2.80458   2.86740   2.88594
  Beta virt. eigenvalues --    2.91437   2.92368   2.96254   2.99640   3.02954
  Beta virt. eigenvalues --    3.03869   3.07436   3.09713   3.12131   3.14963
  Beta virt. eigenvalues --    3.19123   3.19741   3.21767   3.25393   3.26279
  Beta virt. eigenvalues --    3.26988   3.31225   3.32966   3.36612   3.37856
  Beta virt. eigenvalues --    3.40729   3.43259   3.44100   3.47359   3.49206
  Beta virt. eigenvalues --    3.52021   3.52520   3.54406   3.58215   3.60326
  Beta virt. eigenvalues --    3.66928   3.69227   3.70054   3.70829   3.74476
  Beta virt. eigenvalues --    3.74821   3.76659   3.77198   3.79495   3.84008
  Beta virt. eigenvalues --    3.85099   3.85888   3.89169   3.91001   3.93843
  Beta virt. eigenvalues --    3.96168   3.96962   4.00915   4.01607   4.05158
  Beta virt. eigenvalues --    4.07267   4.09845   4.11414   4.13294   4.14906
  Beta virt. eigenvalues --    4.20797   4.24196   4.26917   4.33529   4.36107
  Beta virt. eigenvalues --    4.39392   4.40138   4.47375   4.49432   4.55235
  Beta virt. eigenvalues --    4.57853   4.64940   4.68892   4.72470   4.78324
  Beta virt. eigenvalues --    4.82373   4.84519   4.86215   4.87360   4.94255
  Beta virt. eigenvalues --    4.95935   4.96953   5.00254   5.06958   5.09021
  Beta virt. eigenvalues --    5.11416   5.13446   5.17127   5.20854   5.24458
  Beta virt. eigenvalues --    5.30250   5.36168   5.46576   5.61966   5.63787
  Beta virt. eigenvalues --    5.69893   5.74187   5.78172   5.87494   5.96004
  Beta virt. eigenvalues --    6.03540   6.13413   6.17318   6.22978   6.29819
  Beta virt. eigenvalues --    6.32993   6.39864   6.41490   6.42836   6.48443
  Beta virt. eigenvalues --    6.54629   6.55180   6.61111   6.63036   6.65101
  Beta virt. eigenvalues --    6.74385   6.77542   6.84028   6.86947   6.88927
  Beta virt. eigenvalues --    6.96904   7.14073   7.20210   7.27306   7.29621
  Beta virt. eigenvalues --    7.49162   7.65493   9.95399  10.95801  11.61419
  Beta virt. eigenvalues --   11.63409  12.75982
          Condensed to atoms (all electrons):
               1          2          3          4          5          6
     1  O    7.857906  -0.000004  -0.000084   0.342027  -0.048106  -0.053380
     2  O   -0.000004   7.889330   0.028591   0.001162   0.004919  -0.000035
     3  O   -0.000084   0.028591   8.107643  -0.000130  -0.090693  -0.000114
     4  C    0.342027   0.001162  -0.000130   4.648587   0.316252   0.387162
     5  C   -0.048106   0.004919  -0.090693   0.316252   5.337745  -0.046101
     6  H   -0.053380  -0.000035  -0.000114   0.387162  -0.046101   0.735850
     7  H   -0.047121   0.000028   0.002471   0.399042  -0.052895  -0.089203
     8  H    0.000942  -0.027597   0.190179  -0.015006   0.235253   0.000054
     9  H    0.002764   0.000953   0.000859  -0.029603   0.362513  -0.008458
    10  H   -0.005400   0.000852  -0.003282  -0.040997   0.383857   0.007551
    11  H    0.338112  -0.000002  -0.000050  -0.052078  -0.008938  -0.000504
    12  H    0.000001   0.312811  -0.040847  -0.000033  -0.003091   0.000004
               7          8          9         10         11         12
     1  O   -0.047121   0.000942   0.002764  -0.005400   0.338112   0.000001
     2  O    0.000028  -0.027597   0.000953   0.000852  -0.000002   0.312811
     3  O    0.002471   0.190179   0.000859  -0.003282  -0.000050  -0.040847
     4  C    0.399042  -0.015006  -0.029603  -0.040997  -0.052078  -0.000033
     5  C   -0.052895   0.235253   0.362513   0.383857  -0.008938  -0.003091
     6  H   -0.089203   0.000054  -0.008458   0.007551  -0.000504   0.000004
     7  H    0.685546  -0.000742   0.004912  -0.000704   0.008535   0.000026
     8  H   -0.000742   0.408096  -0.008144  -0.010457   0.000564   0.000749
     9  H    0.004912  -0.008144   0.585061  -0.041932   0.000698  -0.000215
    10  H   -0.000704  -0.010457  -0.041932   0.596037   0.006877   0.000645
    11  H    0.008535   0.000564   0.000698   0.006877   0.457294  -0.000000
    12  H    0.000026   0.000749  -0.000215   0.000645  -0.000000   0.460071
          Atomic-Atomic Spin Densities.
               1          2          3          4          5          6
     1  O    0.021455   0.000004  -0.000240   0.002299  -0.007625   0.001930
     2  O    0.000004   0.135206  -0.068331  -0.000190   0.017072   0.000044
     3  O   -0.000240  -0.068331   0.586386   0.001366  -0.102669  -0.000571
     4  C    0.002299  -0.000190   0.001366  -0.041436  -0.013297   0.008450
     5  C   -0.007625   0.017072  -0.102669  -0.013297   0.670322  -0.009345
     6  H    0.001930   0.000044  -0.000571   0.008450  -0.009345   0.025669
     7  H   -0.003019  -0.000146   0.002478   0.004116  -0.009540  -0.007364
     8  H   -0.000016   0.009864  -0.021118   0.003986   0.036673   0.000186
     9  H   -0.000642  -0.001031   0.003321  -0.000810  -0.001522  -0.001964
    10  H    0.000122  -0.000497   0.001658   0.001316  -0.004016  -0.000226
    11  H    0.000337  -0.000005   0.000083   0.001040   0.000931  -0.000474
    12  H    0.000002   0.001144  -0.001452  -0.000013   0.001101   0.000003
               7          8          9         10         11         12
     1  O   -0.003019  -0.000016  -0.000642   0.000122   0.000337   0.000002
     2  O   -0.000146   0.009864  -0.001031  -0.000497  -0.000005   0.001144
     3  O    0.002478  -0.021118   0.003321   0.001658   0.000083  -0.001452
     4  C    0.004116   0.003986  -0.000810   0.001316   0.001040  -0.000013
     5  C   -0.009540   0.036673  -0.001522  -0.004016   0.000931   0.001101
     6  H   -0.007364   0.000186  -0.001964  -0.000226  -0.000474   0.000003
     7  H    0.035486  -0.000639   0.000860   0.000020   0.000255  -0.000017
     8  H   -0.000639  -0.069059   0.000369   0.001390  -0.000129   0.000734
     9  H    0.000860   0.000369  -0.020340   0.003546   0.000084  -0.000071
    10  H    0.000020   0.001390   0.003546  -0.034043  -0.000041  -0.000102
    11  H    0.000255  -0.000129   0.000084  -0.000041  -0.003370  -0.000001
    12  H   -0.000017   0.000734  -0.000071  -0.000102  -0.000001  -0.005597
 Mulliken charges and spin densities:
               1          2
     1  O   -0.387656   0.014608
     2  O   -0.211008   0.093134
     3  O   -0.194541   0.400910
     4  C    0.043615  -0.033175
     5  C   -0.390715   0.578086
     6  H    0.067175   0.016338
     7  H    0.090103   0.022490
     8  H    0.226110  -0.037758
     9  H    0.130592  -0.018201
    10  H    0.106954  -0.030874
    11  H    0.249491  -0.001289
    12  H    0.269880  -0.004268
 Sum of Mulliken charges =  -0.00000   1.00000
 Mulliken charges and spin densities with hydrogens summed into heavy atoms:
               1          2
     1  O   -0.138165   0.013319
     2  O    0.058872   0.088866
     3  O    0.031569   0.363152
     4  C    0.200893   0.005653
     5  C   -0.153169   0.529011
 Electronic spatial extent (au):  <R**2>=            742.5504
 Charge=             -0.0000 electrons
 Dipole moment (field-independent basis, Debye):
    X=             -0.6594    Y=              2.0251    Z=              1.9828  Tot=              2.9099
 Quadrupole moment (field-independent basis, Debye-Ang):
   XX=            -37.1121   YY=            -32.5390   ZZ=            -26.5138
   XY=              1.7640   XZ=             -4.3335   YZ=              0.7976
 Traceless Quadrupole moment (field-independent basis, Debye-Ang):
   XX=             -5.0571   YY=             -0.4840   ZZ=              5.5411
   XY=              1.7640   XZ=             -4.3335   YZ=              0.7976
 Octapole moment (field-independent basis, Debye-Ang**2):
  XXX=            -30.2602  YYY=             -1.7367  ZZZ=              9.1319  XYY=             -3.0259
  XXY=              7.6603  XXZ=             16.6125  XZZ=             -2.4445  YZZ=             -0.5534
  YYZ=             -0.6599  XYZ=              0.6561
 Hexadecapole moment (field-independent basis, Debye-Ang**3):
 XXXX=           -765.7339 YYYY=            -86.9901 ZZZZ=            -63.3881 XXXY=             14.7686
 XXXZ=            -37.2952 YYYX=              0.1753 YYYZ=             -0.9290 ZZZX=              3.8447
 ZZZY=              0.5805 XXYY=           -139.4293 XXZZ=            -99.5816 YYZZ=            -26.9869
 XXYZ=              4.9372 YYXZ=             -1.8955 ZZXY=             -0.8158
 N-N= 1.804690319757D+02 E-N=-1.080027747653D+03  KE= 3.042855525870D+02
                          Isotropic Fermi Contact Couplings
        Atom                 a.u.       MegaHertz       Gauss      10(-4) cm-1
     1  O(17)              0.00102      -0.61582      -0.21974      -0.20541
     2  O(17)              0.00708      -4.29186      -1.53144      -1.43161
     3  O(17)              0.10165     -61.62225     -21.98835     -20.55497
     4  C(13)             -0.00952     -10.69739      -3.81709      -3.56826
     5  C(13)              0.20342     228.67968      81.59860      76.27933
     6  H(1)               0.00766      34.22910      12.21379      11.41760
     7  H(1)               0.01102      49.24277      17.57104      16.42562
     8  H(1)              -0.03639    -162.66975     -58.04461     -54.26079
     9  H(1)               0.00001       0.06305       0.02250       0.02103
    10  H(1)              -0.00786     -35.13458     -12.53689     -11.71964
    11  H(1)              -0.00071      -3.16316      -1.12869      -1.05512
    12  H(1)              -0.00233     -10.41821      -3.71748      -3.47514
 --------------------------------------------------------
       Center         ----  Spin Dipole Couplings  ----
                      3XX-RR        3YY-RR        3ZZ-RR
 --------------------------------------------------------
     1   Atom        0.075228     -0.037649     -0.037579
     2   Atom        0.133982      0.113678     -0.247660
     3   Atom        0.086498      0.920953     -1.007452
     4   Atom        0.018110     -0.007990     -0.010120
     5   Atom        0.336616     -0.108032     -0.228584
     6   Atom        0.005572     -0.005191     -0.000382
     7   Atom        0.000031      0.000339     -0.000370
     8   Atom        0.105546     -0.004450     -0.101097
     9   Atom       -0.012507      0.040324     -0.027817
    10   Atom       -0.013967     -0.029531      0.043498
    11   Atom        0.002444     -0.003796      0.001352
    12   Atom       -0.003957     -0.014938      0.018895
 --------------------------------------------------------
                        XY            XZ            YZ
 --------------------------------------------------------
     1   Atom       -0.042352     -0.001829      0.002768
     2   Atom        0.434860      0.009765      0.013566
     3   Atom        1.475779      0.148092      0.180231
     4   Atom        0.005857     -0.011827     -0.000774
     5   Atom        0.362962      0.224548      0.124464
     6   Atom        0.000948     -0.007401     -0.001557
     7   Atom       -0.005744     -0.005145      0.008418
     8   Atom        0.154535      0.003521     -0.006678
     9   Atom       -0.001578      0.013332     -0.019075
    10   Atom        0.014340      0.007810     -0.002702
    11   Atom       -0.003910      0.006502      0.000352
    12   Atom        0.000438     -0.013540      0.007147
 --------------------------------------------------------


 ---------------------------------------------------------------------------------
              Anisotropic Spin Dipole Couplings in Principal Axis System
 ---------------------------------------------------------------------------------

       Atom             a.u.   MegaHertz   Gauss  10(-4) cm-1        Axes

              Baa    -0.0521     3.767     1.344     1.257  0.3108  0.9401 -0.1404
     1 O(17)  Bbb    -0.0373     2.702     0.964     0.901  0.0638  0.1268  0.9899
              Bcc     0.0894    -6.469    -2.308    -2.158  0.9483 -0.3166 -0.0206
 
              Baa    -0.3113    22.524     8.037     7.513 -0.6975  0.7152 -0.0454
     2 O(17)  Bbb    -0.2479    17.935     6.400     5.983 -0.0463  0.0183  0.9988
              Bcc     0.5591   -40.459   -14.437   -13.496  0.7151  0.6987  0.0204
 
              Baa    -1.0372    75.050    26.780    25.034  0.6571 -0.4388 -0.6130
     3 O(17)  Bbb    -1.0179    73.655    26.282    24.569  0.4540 -0.4187  0.7865
              Bcc     2.0551  -148.705   -53.062   -49.603  0.6017  0.7951  0.0759
 
              Baa    -0.0147    -1.972    -0.704    -0.658  0.3648 -0.2139  0.9062
     4 C(13)  Bbb    -0.0088    -1.177    -0.420    -0.393 -0.0930  0.9600  0.2641
              Bcc     0.0235     3.149     1.124     1.050  0.9264  0.1806 -0.3304
 
              Baa    -0.3116   -41.812   -14.919   -13.947 -0.5307  0.8234  0.2009
     5 C(13)  Bbb    -0.3062   -41.092   -14.663   -13.707 -0.1451 -0.3218  0.9356
              Bcc     0.6178    82.904    29.582    27.654  0.8351  0.4674  0.2903
 
              Baa    -0.0061    -3.270    -1.167    -1.091  0.3409  0.6991  0.6285
     6 H(1)   Bbb    -0.0046    -2.463    -0.879    -0.822 -0.4572  0.7075 -0.5389
              Bcc     0.0107     5.733     2.046     1.912  0.8214  0.1037 -0.5608
 
              Baa    -0.0085    -4.511    -1.610    -1.505  0.0525  0.7082 -0.7040
     7 H(1)   Bbb    -0.0045    -2.422    -0.864    -0.808  0.8579  0.3288  0.3948
              Bcc     0.0130     6.933     2.474     2.312 -0.5111  0.6247  0.5903
 
              Baa    -0.1170   -62.429   -22.276   -20.824 -0.5206  0.7400  0.4259
     8 H(1)   Bbb    -0.0976   -52.062   -18.577   -17.366  0.2478 -0.3463  0.9048
              Bcc     0.2146   114.491    40.853    38.190  0.8171  0.5766 -0.0031
 
              Baa    -0.0388   -20.703    -7.387    -6.906 -0.4331  0.2031  0.8782
     9 H(1)   Bbb    -0.0069    -3.694    -1.318    -1.232  0.8972  0.1908  0.3983
              Bcc     0.0457    24.397     8.705     8.138 -0.0866  0.9604 -0.2648
 
              Baa    -0.0386   -20.572    -7.340    -6.862 -0.5205  0.8503  0.0775
    10 H(1)   Bbb    -0.0060    -3.198    -1.141    -1.067  0.8439  0.5262 -0.1045
              Bcc     0.0445    23.769     8.481     7.929  0.1296 -0.0111  0.9915
 
              Baa    -0.0073    -3.919    -1.398    -1.307  0.5748  0.6787 -0.4572
    11 H(1)   Bbb    -0.0017    -0.881    -0.314    -0.294 -0.3291  0.7033  0.6302
              Bcc     0.0090     4.799     1.713     1.601  0.7492 -0.2118  0.6276
 
              Baa    -0.0175    -9.324    -3.327    -3.110 -0.3277  0.8965 -0.2982
    12 H(1)   Bbb    -0.0087    -4.633    -1.653    -1.545  0.8543  0.4159  0.3116
              Bcc     0.0262    13.957     4.980     4.655 -0.4034  0.1526  0.9022
 

 ---------------------------------------------------------------------------------

 No NMR shielding tensors so no spin-rotation constants.
 Leave Link  601 at Sat Jun 22 12:29:52 2019, MaxMem=   671088640 cpu:              44.2 elap:               2.8
 (Enter /shared/centos7/gaussian/g16/l701.exe)
 ... and contract with generalized density number  0.
 Compute integral first derivatives.
 Leave Link  701 at Sat Jun 22 12:29:53 2019, MaxMem=   671088640 cpu:              22.2 elap:               1.4
 (Enter /shared/centos7/gaussian/g16/l702.exe)
 L702 exits ... SP integral derivatives will be done elsewhere.
 Leave Link  702 at Sat Jun 22 12:29:53 2019, MaxMem=   671088640 cpu:               1.4 elap:               0.1
 (Enter /shared/centos7/gaussian/g16/l703.exe)
 Integral derivatives from FoFJK, PRISM(SPDF).
 Compute integral first derivatives, UseDBF=F ICtDFT=           0.
 Calling FoFJK, ICntrl=      2127 FMM=F ISym2X=0 I1Cent= 0 IOpClX= 1 NMat=1 NMatS=1 NMatT=0.
 FoFJK:  IHMeth= 1 ICntrl=    2127 DoSepK=F KAlg= 0 I1Cent=           0 FoldK=F
 IRaf=         0 NMat=       1 IRICut=       1 DoRegI=T DoRafI=F ISym2E= 0 IDoP0=0 IntGTp=1.
 FoFCou: FMM=F IPFlag=           0 FMFlag=      100000 FMFlg1=         800
         NFxFlg=           0 DoJE=F BraDBF=F KetDBF=F FulRan=T
         wScrn=  0.000000 ICntrl=      2127 IOpCl=  1 I1Cent=           0 NGrid=           0
         NMat0=    1 NMatS0=      1 NMatT0=    0 NMatD0=    1 NMtDS0=    0 NMtDT0=    0
 Symmetry not used in FoFCou.
 Leave Link  703 at Sat Jun 22 12:30:02 2019, MaxMem=   671088640 cpu:             163.2 elap:               9.0
 (Enter /shared/centos7/gaussian/g16/l716.exe)
 Dipole        =-2.59410735D-01 7.96745367D-01 7.80080590D-01
 ***** Axes restored to original set *****
 -------------------------------------------------------------------
 Center     Atomic                   Forces (Hartrees/Bohr)
 Number     Number              X              Y              Z
 -------------------------------------------------------------------
      1        8           0.014302320   -0.008790610    0.032482281
      2        8           0.043647352    0.023703471    0.039108719
      3        8          -0.042599363   -0.018248168   -0.019474903
      4        6           0.003065144    0.012652850   -0.015671102
      5        6           0.015676917   -0.012137215   -0.002231827
      6        1          -0.003747510    0.004392230    0.009026199
      7        1           0.006090688   -0.005607401    0.004200945
      8        1          -0.004286491   -0.020460255    0.005245107
      9        1          -0.011313922    0.007431426    0.004203561
     10        1          -0.001930527    0.007904147   -0.011113991
     11        1          -0.019252998    0.000969543   -0.025913750
     12        1           0.000348390    0.008189982   -0.019861240
 -------------------------------------------------------------------
 Cartesian Forces:  Max     0.043647352 RMS     0.017665413
 Leave Link  716 at Sat Jun 22 12:30:02 2019, MaxMem=   671088640 cpu:               1.5 elap:               0.1
 (Enter /shared/centos7/gaussian/g16/l103.exe)

 GradGradGradGradGradGradGradGradGradGradGradGradGradGradGradGradGradGrad
 Berny optimization.
 FormGI is forming the generalized inverse of G from B-inverse, IUseBI=4.
 Internal  Forces:  Max     0.057395556 RMS     0.011876035
 Search for a local minimum.
 Step number   1 out of a maximum of  100
 All quantities printed in internal units (Hartrees-Bohrs-Radians)
 RMS Force = .11863D-01 SwitMx=.10000D-02 MixMth= 1
 Mixed Optimization -- RFO/linear search
 Second derivative matrix not updated -- first step.
 ITU=  0
     Eigenvalues ---    0.00230   0.00230   0.00467   0.01676   0.02406
     Eigenvalues ---    0.04770   0.04897   0.05056   0.05863   0.11441
     Eigenvalues ---    0.11858   0.13658   0.14083   0.16000   0.16000
     Eigenvalues ---    0.16000   0.16000   0.21992   0.30117   0.32243
     Eigenvalues ---    0.32527   0.32556   0.32557   0.45426   0.48963
     Eigenvalues ---    0.49446   0.629321000.000001000.000001000.00000
     Eigenvalues --- 1000.000001000.000001000.000001000.000001000.00000
     Eigenvalues --- 1000.000001000.000001000.000001000.000001000.00000
     Eigenvalues --- 1000.000001000.000001000.000001000.00000
 RFO step:  Lambda=-1.29435833D-02 EMin= 2.30000000D-03
 Linear search not attempted -- first point.
 Iteration  1 RMS(Cart)=  0.06965949 RMS(Int)=  0.00403278
 Iteration  2 RMS(Cart)=  0.00506767 RMS(Int)=  0.00046533
 Iteration  3 RMS(Cart)=  0.00001920 RMS(Int)=  0.00046514
 Iteration  4 RMS(Cart)=  0.00000000 RMS(Int)=  0.00046514
 Iteration  1 RMS(Cart)=  0.00000000 RMS(Int)=  0.00000000
 ITry= 1 IFail=0 DXMaxC= 1.90D-01 DCOld= 1.00D+10 DXMaxT= 3.00D-01 DXLimC= 3.00D+00 Rises=F
 Variable       Old X    -DE/DX   Delta X   Delta X   Delta X     New X
                                 (Linear)    (Quad)   (Total)
    R1        2.64785   0.01128   0.00000   0.02414   0.02414   2.67199
    R2        1.87627  -0.03203   0.00000  -0.06374  -0.06374   1.81253
    R3        2.48693   0.05740   0.00000   0.08936   0.08936   2.57629
    R4        1.87128  -0.02085   0.00000  -0.04110  -0.04110   1.83019
    R5        2.20171   0.01040   0.00000   0.00000  -0.00000   2.20171
    R6        2.87731  -0.00407   0.00000  -0.01296  -0.01296   2.86434
    R7        2.10402  -0.01066   0.00000  -0.03179  -0.03179   2.07223
    R8        2.09838  -0.00921   0.00000  -0.02720  -0.02720   2.07117
    R9        2.58653  -0.00647   0.00000   0.00000   0.00000   2.58653
   R10        2.09890  -0.01308   0.00000  -0.03867  -0.03867   2.06022
   R11        2.09837  -0.01267   0.00000  -0.03743  -0.03743   2.06094
    A1        1.86419   0.00794   0.00000   0.04591   0.04591   1.91010
    A2        1.80772   0.00891   0.00000   0.05152   0.05152   1.85924
    A3        1.82189   0.00719   0.00000   0.04157   0.04157   1.86346
    A4        1.97757   0.00493   0.00000   0.02139   0.02140   1.99898
    A5        1.91956  -0.00173   0.00000  -0.00452  -0.00459   1.91497
    A6        1.87675  -0.00123   0.00000  -0.00584  -0.00575   1.87100
    A7        1.90386  -0.00087   0.00000  -0.00130  -0.00136   1.90250
    A8        1.93228  -0.00253   0.00000  -0.01553  -0.01550   1.91678
    A9        1.84946   0.00117   0.00000   0.00463   0.00459   1.85405
   A10        1.92102  -0.00411   0.00000  -0.04023  -0.04000   1.88101
   A11        1.97844   0.00463   0.00000   0.03987   0.03867   2.01711
   A12        1.96485   0.00199   0.00000   0.01937   0.01786   1.98272
   A13        1.85566  -0.00212   0.00000  -0.02743  -0.02679   1.82887
   A14        1.83141  -0.00126   0.00000  -0.02674  -0.02664   1.80477
   A15        1.90360   0.00016   0.00000   0.02712   0.02537   1.92897
   A16        2.57620   0.01690   0.00000   0.00000  -0.00000   2.57620
    D1       -0.24876  -0.00181   0.00000  -0.04601  -0.04601  -0.29477
    D2        1.88707  -0.00075   0.00000  -0.03600  -0.03600   1.85107
    D3       -2.38989  -0.00094   0.00000  -0.03607  -0.03607  -2.42595
    D4       -1.73533  -0.00195   0.00000  -0.05264  -0.05264  -1.78797
    D5        1.98759  -0.00172   0.00000  -0.11278  -0.11278   1.87480
    D6       -2.14999   0.00010   0.00000  -0.00548  -0.00558  -2.15557
    D7        2.05760   0.00263   0.00000   0.03121   0.03188   2.08947
    D8       -0.11357  -0.00290   0.00000  -0.05297  -0.05341  -0.16698
    D9        1.98866  -0.00043   0.00000  -0.01345  -0.01360   1.97506
   D10       -0.08693   0.00210   0.00000   0.02324   0.02386  -0.06307
   D11       -2.25810  -0.00343   0.00000  -0.06094  -0.06143  -2.31953
   D12       -0.03993   0.00011   0.00000  -0.00941  -0.00958  -0.04952
   D13       -2.11553   0.00264   0.00000   0.02729   0.02788  -2.08765
   D14        1.99648  -0.00289   0.00000  -0.05689  -0.05741   1.93907
   D15        1.64341  -0.00140   0.00000  -0.04577  -0.04575   1.59766
   D16       -2.49050   0.00047   0.00000  -0.03816  -0.03776  -2.52827
   D17       -0.47477  -0.00083   0.00000  -0.03154  -0.03195  -0.50672
         Item               Value     Threshold  Converged?
 Maximum Force            0.057396     0.002500     NO 
 RMS     Force            0.011863     0.001667     NO 
 Maximum Displacement     0.189618     0.010000     NO 
 RMS     Displacement     0.071538     0.006667     NO 
 Predicted change in Energy=-6.941768D-03
 Lowest energy point so far.  Saving SCF results.
 GradGradGradGradGradGradGradGradGradGradGradGradGradGradGradGradGradGrad

 Leave Link  103 at Sat Jun 22 12:30:06 2019, MaxMem=   671088640 cpu:              65.7 elap:               4.0
 (Enter /shared/centos7/gaussian/g16/l202.exe)
                          Input orientation:                          
 ---------------------------------------------------------------------
 Center     Atomic      Atomic             Coordinates (Angstroms)
 Number     Number       Type             X           Y           Z
 ---------------------------------------------------------------------
      1          8           0       -2.718469    0.286813    0.874321
      2          8           0       -0.486449    4.936868    1.749410
      3          8           0       -1.526236    4.205437    1.256986
      4          6           0       -1.999616    1.225338    0.098637
      5          6           0       -0.858668    1.904127    0.830053
      6          1           0       -1.606843    0.737838   -0.801670
      7          1           0       -2.717911    1.976842   -0.248564
      8          1           0       -1.065404    3.255556    0.764229
      9          1           0        0.131867    1.752919    0.400444
     10          1           0       -0.845493    1.702257    1.901728
     11          1           0       -2.202015    0.048629    1.646660
     12          1           0       -0.468930    4.781953    2.705272
 ---------------------------------------------------------------------
                    Distance matrix (angstroms):
                    1          2          3          4          5
     1  O    0.000000
     2  O    5.231702   0.000000
     3  O    4.113814   1.363316   0.000000
     4  C    1.413954   4.334764   3.232159   0.000000
     5  C    2.465061   3.190812   2.433915   1.515746   0.000000
     6  H    2.061088   5.039359   4.033460   1.096576   2.140681
     7  H    2.029057   4.211066   2.941667   1.096018   2.150694
     8  H    3.399732   2.032875   1.165096   2.331855   1.368733
     9  H    3.240130   3.512771   3.081852   2.216449   1.090224
    10  H    2.562633   3.258040   2.673015   2.193305   1.090602
    11  H    0.959147   5.181564   4.229371   1.954989   2.431934
    12  H    5.349681   0.968493   1.883561   4.667661   3.456909
                    6          7          8          9         10
     6  H    0.000000
     7  H    1.753718   0.000000
     8  H    3.013983   2.321990   0.000000
     9  H    2.344905   2.931312   1.955432   0.000000
    10  H    2.969532   2.864455   1.937783   1.792108   0.000000
    11  H    2.612194   2.752459   3.514961   3.147167   2.153996
    12  H    5.472509   4.653140   2.540338   3.853341   3.204997
                   11         12
    11  H    0.000000
    12  H    5.150592   0.000000
 Stoichiometry    C2H7O3(2)
 Framework group  C1[X(C2H7O3)]
 Deg. of freedom    30
 Full point group                 C1      NOp   1
 RotChk:  IX=0 Diff= 1.93D-02
 Largest Abelian subgroup         C1      NOp   1
 Largest concise Abelian subgroup C1      NOp   1
                         Standard orientation:                         
 ---------------------------------------------------------------------
 Center     Atomic      Atomic             Coordinates (Angstroms)
 Number     Number       Type             X           Y           Z
 ---------------------------------------------------------------------
      1          8           0        2.481320   -0.466597    0.406549
      2          8           0       -2.713588    0.082577    0.120111
      3          8           0       -1.580867   -0.589757   -0.231369
      4          6           0        1.570667    0.058240   -0.539243
      5          6           0        0.394871    0.800636    0.063946
      6          1           0        2.098671    0.726562   -1.229921
      7          1           0        1.209476   -0.782486   -1.142548
      8          1           0       -0.751743    0.211925   -0.396626
      9          1           0        0.303554    1.848824   -0.221625
     10          1           0        0.318131    0.691174    1.146324
     11          1           0        2.340646   -0.041855    1.254941
     12          1           0       -2.806878   -0.017193    1.078923
 ---------------------------------------------------------------------
 Rotational constants (GHZ):          13.9306589           1.5687511           1.5327208
 Leave Link  202 at Sat Jun 22 12:30:07 2019, MaxMem=   671088640 cpu:               2.3 elap:               0.2
 (Enter /shared/centos7/gaussian/g16/l301.exe)
 Standard basis: CC-pVTZ (5D, 7F)
 Ernie: Thresh=  0.10000D-02 Tol=  0.10000D-05 Strict=F.
 Ernie:  15 primitive shells out of 186 were deleted.
 There are   280 symmetry adapted cartesian basis functions of A   symmetry.
 There are   248 symmetry adapted basis functions of A   symmetry.
   248 basis functions,   379 primitive gaussians,   280 cartesian basis functions
    22 alpha electrons       21 beta electrons
       nuclear repulsion energy       179.7592338042 Hartrees.
 IExCor= 4336 DFT=T Ex+Corr=M062X ExCW=0 ScaHFX=  0.540000
 ScaDFX=  1.000000  1.000000  1.000000  1.000000 ScalE2=  1.000000  1.000000
 IRadAn=      1 IRanWt=     -1 IRanGd=            0 ICorTp=0 IEmpDi=  4
 NAtoms=   12 NActive=   12 NUniq=   12 SFac= 1.00D+00 NAtFMM=   60 NAOKFM=F Big=F
 Integral buffers will be    131072 words long.
 Raffenetti 2 integral format.
 Two-electron integral symmetry is turned on.
 Leave Link  301 at Sat Jun 22 12:30:07 2019, MaxMem=   671088640 cpu:               1.6 elap:               0.1
 (Enter /shared/centos7/gaussian/g16/l302.exe)
 NPDir=0 NMtPBC=     1 NCelOv=     1 NCel=       1 NClECP=     1 NCelD=      1
         NCelK=      1 NCelE2=     1 NClLst=     1 CellRange=     0.0.
 One-electron integrals computed using PRISM.
 One-electron integral symmetry used in STVInt
 NBasis=   248 RedAO= T EigKep=  7.15D-04  NBF=   248
 NBsUse=   248 1.00D-06 EigRej= -1.00D+00 NBFU=   248
 Precomputing XC quadrature grid using
 IXCGrd= 4 IRadAn=           1 IRanWt=          -1 IRanGd=           0 AccXCQ= 0.00D+00.
 Generated NRdTot=       0 NPtTot=           0 NUsed=           0 NTot=          32
 NSgBfM=   280   280   280   280   280 MxSgAt=    12 MxSgA2=    12.
 Leave Link  302 at Sat Jun 22 12:30:07 2019, MaxMem=   671088640 cpu:               7.8 elap:               0.5
 (Enter /shared/centos7/gaussian/g16/l303.exe)
 DipDrv:  MaxL=1.
 Leave Link  303 at Sat Jun 22 12:30:07 2019, MaxMem=   671088640 cpu:               4.5 elap:               0.3
 (Enter /shared/centos7/gaussian/g16/l401.exe)
 Initial guess from the checkpoint file:  "/scratch/harms.n/gauss_scrdir/Gau-22072.chk"
 B after Tr=    -0.000000   -0.000000    0.000000
         Rot=    0.999907   -0.013632    0.000016   -0.000571 Ang=  -1.56 deg.
 Guess basis will be translated and rotated to current coordinates.
 JPrj=2 DoOrth=T DoCkMO=T.
 Initial guess <Sx>= 0.0000 <Sy>= 0.0000 <Sz>= 0.5000 <S**2>= 0.7601 S= 0.5051
 Generating alternative initial guess.
 ExpMin= 1.03D-01 ExpMax= 1.53D+04 ExpMxC= 5.22D+02 IAcc=1 IRadAn=         1 AccDes= 0.00D+00
 Harris functional with IExCor= 1009 and IRadAn=       1 diagonalized for initial guess.
 HarFok:  IExCor= 1009 AccDes= 0.00D+00 IRadAn=         1 IDoV= 1 UseB2=F ITyADJ=14
 ICtDFT=  3500011 ScaDFX=  1.000000  1.000000  1.000000  1.000000
 FoFCou: FMM=F IPFlag=           0 FMFlag=      100000 FMFlg1=           0
         NFxFlg=           0 DoJE=T BraDBF=F KetDBF=T FulRan=T
         wScrn=  0.000000 ICntrl=       500 IOpCl=  0 I1Cent=   200000004 NGrid=           0
         NMat0=    1 NMatS0=      1 NMatT0=    0 NMatD0=    1 NMtDS0=    0 NMtDT0=    0
 Petite list used in FoFCou.
 Harris En= -305.771672745708    
 Leave Link  401 at Sat Jun 22 12:30:10 2019, MaxMem=   671088640 cpu:              41.7 elap:               2.7
 (Enter /shared/centos7/gaussian/g16/l502.exe)
 Integral symmetry usage will be decided dynamically.
 UHF open shell SCF:
 Using DIIS extrapolation, IDIIS=  1040.
 NGot=   671088640 LenX=   670923676 LenY=   670844835
 Requested convergence on RMS density matrix=1.00D-08 within 900 cycles.
 Requested convergence on MAX density matrix=1.00D-06.
 Requested convergence on             energy=1.00D-06.
 No special actions if energy rises.
 Fock matrices will be formed incrementally for  20 cycles.

 Cycle   1  Pass 1  IDiag  1:
 FoFJK:  IHMeth= 1 ICntrl=       0 DoSepK=F KAlg= 0 I1Cent=           0 FoldK=F
 IRaf= 940000000 NMat=       1 IRICut=       1 DoRegI=T DoRafI=F ISym2E= 0 IDoP0=0 IntGTp=1.
 FoFCou: FMM=F IPFlag=           0 FMFlag=      100000 FMFlg1=           0
         NFxFlg=           0 DoJE=F BraDBF=F KetDBF=F FulRan=T
         wScrn=  0.000000 ICntrl=         0 IOpCl=  1 I1Cent=           0 NGrid=           0
         NMat0=    1 NMatS0=      1 NMatT0=    0 NMatD0=    1 NMtDS0=    0 NMtDT0=    0
 Symmetry not used in FoFCou.
 E= -305.870828508942    
 DIIS: error= 3.99D-03 at cycle   1 NSaved=   1.
 NSaved= 1 IEnMin= 1 EnMin= -305.870828508942     IErMin= 1 ErrMin= 3.99D-03
 ErrMax= 3.99D-03  0.00D+00 EMaxC= 1.00D-01 BMatC= 3.47D-02 BMatP= 3.47D-02
 IDIUse=3 WtCom= 9.60D-01 WtEn= 3.99D-02
 Coeff-Com:  0.100D+01
 Coeff-En:   0.100D+01
 Coeff:      0.100D+01
 Gap=     0.804 Goal=   None    Shift=    0.000
 Gap=     0.838 Goal=   None    Shift=    0.000
 GapD=    0.804 DampG=2.000 DampE=1.000 DampFc=2.0000 IDamp=-1.
 RMSDP=3.57D-04 MaxDP=1.03D-02              OVMax= 2.94D-02

 Cycle   2  Pass 1  IDiag  1:
 RMSU=  3.57D-04    CP:  9.99D-01
 E= -305.882057141758     Delta-E=       -0.011228632816 Rises=F Damp=F
 DIIS: error= 9.32D-04 at cycle   2 NSaved=   2.
 NSaved= 2 IEnMin= 2 EnMin= -305.882057141758     IErMin= 2 ErrMin= 9.32D-04
 ErrMax= 9.32D-04  0.00D+00 EMaxC= 1.00D-01 BMatC= 1.88D-03 BMatP= 3.47D-02
 IDIUse=3 WtCom= 9.91D-01 WtEn= 9.32D-03
 Coeff-Com: -0.747D-01 0.107D+01
 Coeff-En:   0.000D+00 0.100D+01
 Coeff:     -0.740D-01 0.107D+01
 Gap=     0.355 Goal=   None    Shift=    0.000
 Gap=     0.253 Goal=   None    Shift=    0.000
 RMSDP=1.20D-04 MaxDP=4.14D-03 DE=-1.12D-02 OVMax= 1.19D-02

 Cycle   3  Pass 1  IDiag  1:
 RMSU=  8.94D-05    CP:  9.99D-01  1.22D+00
 E= -305.882568215259     Delta-E=       -0.000511073501 Rises=F Damp=F
 DIIS: error= 1.24D-03 at cycle   3 NSaved=   3.
 NSaved= 3 IEnMin= 3 EnMin= -305.882568215259     IErMin= 2 ErrMin= 9.32D-04
 ErrMax= 1.24D-03  0.00D+00 EMaxC= 1.00D-01 BMatC= 1.85D-03 BMatP= 1.88D-03
 IDIUse=3 WtCom= 9.88D-01 WtEn= 1.24D-02
 Coeff-Com: -0.803D-01 0.573D+00 0.507D+00
 Coeff-En:   0.000D+00 0.000D+00 0.100D+01
 Coeff:     -0.793D-01 0.566D+00 0.513D+00
 Gap=     0.354 Goal=   None    Shift=    0.000
 Gap=     0.257 Goal=   None    Shift=    0.000
 RMSDP=5.31D-05 MaxDP=1.75D-03 DE=-5.11D-04 OVMax= 5.19D-03

 Cycle   4  Pass 1  IDiag  1:
 RMSU=  4.22D-05    CP:  9.99D-01  1.27D+00  7.05D-01
 E= -305.882891167128     Delta-E=       -0.000322951870 Rises=F Damp=F
 DIIS: error= 2.92D-04 at cycle   4 NSaved=   4.
 NSaved= 4 IEnMin= 4 EnMin= -305.882891167128     IErMin= 4 ErrMin= 2.92D-04
 ErrMax= 2.92D-04  0.00D+00 EMaxC= 1.00D-01 BMatC= 1.19D-04 BMatP= 1.85D-03
 IDIUse=3 WtCom= 9.97D-01 WtEn= 2.92D-03
 Coeff-Com: -0.770D-02-0.457D-01 0.166D+00 0.888D+00
 Coeff-En:   0.000D+00 0.000D+00 0.000D+00 0.100D+01
 Coeff:     -0.768D-02-0.455D-01 0.165D+00 0.888D+00
[...]
 Alpha virt. eigenvalues --    3.80088   3.80654   3.83727   3.84772   3.86495
 Alpha virt. eigenvalues --    3.90099   3.90510   3.93696   3.95461   3.98539
 Alpha virt. eigenvalues --    3.99222   4.00689   4.04656   4.08328   4.11704
 Alpha virt. eigenvalues --    4.14172   4.14470   4.18875   4.20847   4.22115
 Alpha virt. eigenvalues --    4.25002   4.29132   4.32120   4.36731   4.37720
 Alpha virt. eigenvalues --    4.41654   4.45565   4.50928   4.59316   4.65697
 Alpha virt. eigenvalues --    4.68436   4.70179   4.73492   4.76614   4.81351
 Alpha virt. eigenvalues --    4.85018   4.86746   4.91518   4.97761   5.01494
 Alpha virt. eigenvalues --    5.03235   5.08362   5.09765   5.12149   5.15748
 Alpha virt. eigenvalues --    5.19878   5.20630   5.27548   5.31851   5.37017
 Alpha virt. eigenvalues --    5.39729   5.45170   5.54455   5.55820   5.69085
 Alpha virt. eigenvalues --    5.74524   5.79946   5.82406   5.93067   5.94807
 Alpha virt. eigenvalues --    6.10013   6.15540   6.20185   6.30501   6.35499
 Alpha virt. eigenvalues --    6.36389   6.44902   6.46948   6.53174   6.57431
 Alpha virt. eigenvalues --    6.62039   6.63476   6.68786   6.69603   6.71110
 Alpha virt. eigenvalues --    6.72861   6.82404   6.84932   6.86724   6.94221
 Alpha virt. eigenvalues --    7.12443   7.13099   7.19531   7.37792   7.43259
 Alpha virt. eigenvalues --    7.58946   9.91827  11.22285  11.75606  12.06934
 Alpha virt. eigenvalues --   12.85157
  Beta  occ. eigenvalues --  -19.69555 -19.68819 -19.62975 -10.59784 -10.55632
  Beta  occ. eigenvalues --   -1.26323  -1.15265  -0.97712  -0.84830  -0.71527
  Beta  occ. eigenvalues --   -0.61688  -0.59436  -0.56488  -0.53878  -0.50991
  Beta  occ. eigenvalues --   -0.49602  -0.46898  -0.41168  -0.38620  -0.37013
  Beta  occ. eigenvalues --   -0.35185
  Beta virt. eigenvalues --   -0.08676   0.05304   0.06042   0.10229   0.11082
  Beta virt. eigenvalues --    0.12963   0.15452   0.16924   0.20026   0.22881
  Beta virt. eigenvalues --    0.24733   0.28384   0.32428   0.33567   0.36225
  Beta virt. eigenvalues --    0.38442   0.42180   0.43472   0.46599   0.47323
  Beta virt. eigenvalues --    0.48537   0.49940   0.50583   0.51603   0.54204
  Beta virt. eigenvalues --    0.56151   0.57070   0.57823   0.63056   0.63922
  Beta virt. eigenvalues --    0.67670   0.70824   0.71485   0.72722   0.74963
  Beta virt. eigenvalues --    0.76171   0.78077   0.79361   0.84611   0.86133
  Beta virt. eigenvalues --    0.87427   0.88043   0.93334   0.98265   1.00955
  Beta virt. eigenvalues --    1.05120   1.07373   1.08443   1.12046   1.12280
  Beta virt. eigenvalues --    1.15049   1.16855   1.20364   1.20847   1.22388
  Beta virt. eigenvalues --    1.26386   1.30497   1.31928   1.33019   1.35137
  Beta virt. eigenvalues --    1.37412   1.38967   1.45730   1.47565   1.48378
  Beta virt. eigenvalues --    1.51432   1.52920   1.57783   1.58914   1.67021
  Beta virt. eigenvalues --    1.69157   1.81678   1.90438   1.91227   1.91914
  Beta virt. eigenvalues --    1.94540   1.98401   1.99809   2.08061   2.11882
  Beta virt. eigenvalues --    2.14046   2.17505   2.24521   2.26593   2.30303
  Beta virt. eigenvalues --    2.34888   2.42155   2.43223   2.45163   2.52635
  Beta virt. eigenvalues --    2.54901   2.56818   2.59267   2.65520   2.68412
  Beta virt. eigenvalues --    2.75380   2.76470   2.83187   2.86869   2.92228
  Beta virt. eigenvalues --    2.94222   2.96197   2.97095   2.99555   3.00139
  Beta virt. eigenvalues --    3.05532   3.07727   3.09726   3.12512   3.12972
  Beta virt. eigenvalues --    3.16372   3.18414   3.24580   3.25128   3.26435
  Beta virt. eigenvalues --    3.29491   3.31572   3.33082   3.36618   3.40844
  Beta virt. eigenvalues --    3.42662   3.42783   3.45725   3.48123   3.49417
  Beta virt. eigenvalues --    3.52967   3.57156   3.59452   3.63865   3.67789
  Beta virt. eigenvalues --    3.67995   3.71284   3.72292   3.74572   3.76062
  Beta virt. eigenvalues --    3.77732   3.80742   3.81286   3.84508   3.85363
  Beta virt. eigenvalues --    3.86805   3.90586   3.90853   3.94375   3.95742
  Beta virt. eigenvalues --    3.99287   3.99600   4.01418   4.04939   4.08700
  Beta virt. eigenvalues --    4.12015   4.14528   4.14651   4.19544   4.21748
  Beta virt. eigenvalues --    4.22215   4.25844   4.29942   4.33038   4.37338
  Beta virt. eigenvalues --    4.39572   4.42002   4.46408   4.51949   4.59902
  Beta virt. eigenvalues --    4.66362   4.68916   4.70723   4.75767   4.77025
  Beta virt. eigenvalues --    4.82073   4.86375   4.87058   4.92888   4.98926
  Beta virt. eigenvalues --    5.02978   5.04282   5.09394   5.10513   5.12849
  Beta virt. eigenvalues --    5.16864   5.20814   5.21509   5.28420   5.34344
  Beta virt. eigenvalues --    5.37901   5.41361   5.48287   5.54768   5.57101
  Beta virt. eigenvalues --    5.69801   5.77937   5.80842   5.83328   5.93280
  Beta virt. eigenvalues --    5.95293   6.10761   6.16331   6.21329   6.31291
  Beta virt. eigenvalues --    6.36145   6.36324   6.45611   6.47103   6.54089
  Beta virt. eigenvalues --    6.60226   6.63166   6.63761   6.69117   6.69891
  Beta virt. eigenvalues --    6.72101   6.74089   6.82640   6.85208   6.88027
  Beta virt. eigenvalues --    6.94363   7.12562   7.13258   7.20322   7.37903
  Beta virt. eigenvalues --    7.43732   7.59121   9.92631  11.22444  11.75800
  Beta virt. eigenvalues --   12.07842  12.85993
          Condensed to atoms (all electrons):
               1          2          3          4          5          6
     1  O    7.862011  -0.000009   0.000116   0.327162  -0.055556  -0.045834
     2  O   -0.000009   7.876006   0.059224  -0.007491   0.008208  -0.000041
     3  O    0.000116   0.059224   8.077141   0.011514  -0.090384   0.001947
     4  C    0.327162  -0.007491   0.011514   4.709233   0.310323   0.408992
     5  C   -0.055556   0.008208  -0.090384   0.310323   5.362895  -0.055050
     6  H   -0.045834  -0.000041   0.001947   0.408992  -0.055050   0.660116
     7  H   -0.035019   0.008211  -0.005692   0.390798  -0.046637  -0.064186
     8  H    0.002045  -0.030858   0.194578  -0.011032   0.216020   0.003675
     9  H   -0.000572   0.001182   0.000319  -0.033185   0.375627  -0.011265
    10  H    0.005005   0.002600  -0.000948  -0.039054   0.384015   0.009054
    11  H    0.316015  -0.000012   0.000085  -0.040159  -0.003825  -0.012142
    12  H   -0.000084   0.316286  -0.033236  -0.000591  -0.003062  -0.000309
               7          8          9         10         11         12
     1  O   -0.035019   0.002045  -0.000572   0.005005   0.316015  -0.000084
     2  O    0.008211  -0.030858   0.001182   0.002600  -0.000012   0.316286
     3  O   -0.005692   0.194578   0.000319  -0.000948   0.000085  -0.033236
     4  C    0.390798  -0.011032  -0.033185  -0.039054  -0.040159  -0.000591
     5  C   -0.046637   0.216020   0.375627   0.384015  -0.003825  -0.003062
     6  H   -0.064186   0.003675  -0.011265   0.009054  -0.012142  -0.000309
     7  H    0.646912  -0.005781   0.009021  -0.009551   0.010861   0.004579
     8  H   -0.005781   0.403348  -0.008779  -0.006660  -0.000123   0.002293
     9  H    0.009021  -0.008779   0.562106  -0.031037   0.004750   0.000014
    10  H   -0.009551  -0.006660  -0.031037   0.521677  -0.001246  -0.000492
    11  H    0.010861  -0.000123   0.004750  -0.001246   0.483459   0.000008
    12  H    0.004579   0.002293   0.000014  -0.000492   0.000008   0.445855
          Atomic-Atomic Spin Densities.
               1          2          3          4          5          6
     1  O    0.060620   0.000049  -0.000268  -0.002614  -0.022054   0.000500
     2  O    0.000049   0.067780  -0.044359  -0.001081   0.017180  -0.000032
     3  O   -0.000268  -0.044359   0.562690   0.004081  -0.104117   0.000050
     4  C   -0.002614  -0.001081   0.004081  -0.030822  -0.016768   0.002153
     5  C   -0.022054   0.017180  -0.104117  -0.016768   0.732829  -0.002204
     6  H    0.000500  -0.000032   0.000050   0.002153  -0.002204   0.001105
     7  H    0.000056  -0.000754   0.000852   0.002518  -0.001806  -0.000139
     8  H    0.000253   0.008835  -0.032501  -0.000564   0.057375  -0.000215
     9  H   -0.000964  -0.000209   0.001714   0.002398  -0.000173   0.000349
    10  H   -0.001051  -0.001652   0.003180   0.002248  -0.006374  -0.000228
    11  H   -0.001275  -0.000012   0.000068   0.001674   0.002817  -0.000085
    12  H   -0.000002   0.000583  -0.000769   0.000146  -0.000471   0.000016
               7          8          9         10         11         12
     1  O    0.000056   0.000253  -0.000964  -0.001051  -0.001275  -0.000002
     2  O   -0.000754   0.008835  -0.000209  -0.001652  -0.000012   0.000583
     3  O    0.000852  -0.032501   0.001714   0.003180   0.000068  -0.000769
     4  C    0.002518  -0.000564   0.002398   0.002248   0.001674   0.000146
     5  C   -0.001806   0.057375  -0.000173  -0.006374   0.002817  -0.000471
     6  H   -0.000139  -0.000215   0.000349  -0.000228  -0.000085   0.000016
     7  H    0.001960   0.000731  -0.000331   0.000229  -0.000034  -0.000071
     8  H    0.000731  -0.062736   0.001630   0.000545  -0.000153  -0.000058
     9  H   -0.000331   0.001630  -0.039884   0.003475   0.000232   0.000001
    10  H    0.000229   0.000545   0.003475  -0.033950   0.000203  -0.000045
    11  H   -0.000034  -0.000153   0.000232   0.000203  -0.002945   0.000002
    12  H   -0.000071  -0.000058   0.000001  -0.000045   0.000002  -0.002074
 Mulliken charges and spin densities:
               1          2
     1  O   -0.375279   0.033251
     2  O   -0.233304   0.046329
     3  O   -0.214664   0.390621
     4  C   -0.026510  -0.036631
     5  C   -0.402573   0.656234
     6  H    0.105043   0.001270
     7  H    0.096484   0.003212
     8  H    0.241276  -0.026856
     9  H    0.131820  -0.031762
    10  H    0.166638  -0.033420
    11  H    0.242328   0.000493
    12  H    0.268740  -0.002742
 Sum of Mulliken charges =  -0.00000   1.00000
 Mulliken charges and spin densities with hydrogens summed into heavy atoms:
               1          2
     1  O   -0.132950   0.033745
     2  O    0.035436   0.043587
     3  O    0.026612   0.363765
     4  C    0.175018  -0.032149
     5  C   -0.104115   0.591052
 Electronic spatial extent (au):  <R**2>=            641.5743
 Charge=             -0.0000 electrons
 Dipole moment (field-independent basis, Debye):
    X=              1.4917    Y=              0.3969    Z=             -0.5009  Tot=              1.6229
 Quadrupole moment (field-independent basis, Debye-Ang):
   XX=            -36.3236   YY=            -27.6245   ZZ=            -32.2581
   XY=              7.3935   XZ=             -1.4742   YZ=              0.6398
 Traceless Quadrupole moment (field-independent basis, Debye-Ang):
   XX=             -4.2549   YY=              4.4442   ZZ=             -0.1894
   XY=              7.3935   XZ=             -1.4742   YZ=              0.6398
 Octapole moment (field-independent basis, Debye-Ang**2):
  XXX=             14.3437  YYY=             -7.1659  ZZZ=              0.0487  XYY=             -7.7833
  XXY=              7.6367  XXZ=             -4.5715  XZZ=             -0.3800  YZZ=             -0.6261
  YYZ=             -0.2739  XYZ=             -1.0475
 Hexadecapole moment (field-independent basis, Debye-Ang**3):
 XXXX=           -560.0629 YYYY=            -98.3563 ZZZZ=            -69.9256 XXXY=             44.5171
 XXXZ=             -2.4263 YYYX=             14.2481 YYYZ=             -3.4682 ZZZX=             -1.0646
 ZZZY=             -1.9164 XXYY=           -107.1272 XXZZ=           -112.3671 YYZZ=            -31.1903
 XXYZ=              2.0273 YYXZ=             -0.6560 ZZXY=              0.7062
 N-N= 1.851476214751D+02 E-N=-1.089461149410D+03  KE= 3.043411153189D+02
                          Isotropic Fermi Contact Couplings
        Atom                 a.u.       MegaHertz       Gauss      10(-4) cm-1
     1  O(17)              0.02064     -12.51024      -4.46397      -4.17297
     2  O(17)              0.00176      -1.06513      -0.38006      -0.35529
     3  O(17)              0.10448     -63.33408     -22.59917     -21.12597
     4  C(13)             -0.01470     -16.52209      -5.89549      -5.51118
     5  C(13)              0.16921     190.21965      67.87510      63.45045
     6  H(1)               0.00031       1.38399       0.49384       0.46165
     7  H(1)               0.00138       6.16714       2.20059       2.05714
     8  H(1)              -0.03279    -146.55529     -52.29457     -48.88558
     9  H(1)              -0.00517     -23.13009      -8.25339      -7.71537
    10  H(1)              -0.00634     -28.31767     -10.10445      -9.44576
    11  H(1)              -0.00080      -3.56424      -1.27181      -1.18890
    12  H(1)              -0.00117      -5.21640      -1.86134      -1.74000
 --------------------------------------------------------
       Center         ----  Spin Dipole Couplings  ----
                      3XX-RR        3YY-RR        3ZZ-RR
 --------------------------------------------------------
     1   Atom        0.069675      0.027721     -0.097396
     2   Atom        0.276657     -0.117279     -0.159378
     3   Atom        1.106631     -0.848314     -0.258317
     4   Atom       -0.000057      0.000929     -0.000871
     5   Atom        0.553878     -0.352405     -0.201473
     6   Atom        0.001188     -0.004828      0.003640
     7   Atom       -0.001622      0.009363     -0.007740
     8   Atom        0.138819     -0.067157     -0.071662
     9   Atom       -0.003310      0.037503     -0.034193
    10   Atom       -0.004621     -0.042695      0.047316
    11   Atom        0.010893     -0.001186     -0.009707
    12   Atom       -0.005673      0.019345     -0.013672
 --------------------------------------------------------
                        XY            XZ            YZ
 --------------------------------------------------------
     1   Atom       -0.144149     -0.044501      0.040907
     2   Atom        0.133545      0.158156      0.087591
     3   Atom        0.547365      1.213211      0.306788
     4   Atom       -0.004183     -0.002315      0.005979
     5   Atom       -0.014530      0.370205     -0.007309
     6   Atom       -0.004010     -0.006846      0.007816
     7   Atom       -0.006475      0.000935      0.005220
     8   Atom        0.081740      0.107397      0.039543
     9   Atom        0.023878      0.007933     -0.022412
    10   Atom        0.005153     -0.006629     -0.015549
    11   Atom        0.003392     -0.004942     -0.001521
    12   Atom       -0.000033     -0.000192     -0.000521
 --------------------------------------------------------


 ---------------------------------------------------------------------------------
              Anisotropic Spin Dipole Couplings in Principal Axis System
 ---------------------------------------------------------------------------------

       Atom             a.u.   MegaHertz   Gauss  10(-4) cm-1        Axes

              Baa    -0.1097     7.935     2.831     2.647  0.0546 -0.2318  0.9712
     1 O(17)  Bbb    -0.0967     6.998     2.497     2.334  0.6693  0.7303  0.1367
              Bcc     0.2064   -14.934    -5.329    -4.981  0.7410 -0.6425 -0.1951
 
              Baa    -0.2344    16.958     6.051     5.657 -0.1401 -0.4857  0.8628
     2 O(17)  Bbb    -0.1420    10.275     3.666     3.427 -0.4114  0.8212  0.3954
              Bcc     0.3764   -27.233    -9.717    -9.084  0.9006  0.2995  0.3149
 
              Baa    -0.9935    71.892    25.653    23.981 -0.3744  0.8944  0.2447
     3 O(17)  Bbb    -0.9629    69.677    24.863    23.242 -0.3866 -0.3904  0.8356
              Bcc     1.9565  -141.570   -50.516   -47.223  0.8428  0.2183  0.4919
 
              Baa    -0.0062    -0.836    -0.298    -0.279  0.2155  0.6969 -0.6840
     4 C(13)  Bbb    -0.0024    -0.320    -0.114    -0.107  0.8519  0.2082  0.4806
              Bcc     0.0086     1.157     0.413     0.386 -0.4773  0.6863  0.5488
 
              Baa    -0.3539   -47.494   -16.947   -15.842 -0.2574  0.7067  0.6590
     5 C(13)  Bbb    -0.3514   -47.152   -16.825   -15.728  0.2773  0.7073 -0.6502
              Bcc     0.7053    94.646    33.772    31.570  0.9257 -0.0153  0.3780
 
              Baa    -0.0095    -5.060    -1.806    -1.688 -0.0082  0.8573 -0.5148
     6 H(1)   Bbb    -0.0040    -2.108    -0.752    -0.703  0.8392  0.2858  0.4626
              Bcc     0.0134     7.168     2.558     2.391 -0.5437  0.4283  0.7218
 
              Baa    -0.0102    -5.456    -1.947    -1.820 -0.3567 -0.3488  0.8666
     7 H(1)   Bbb    -0.0031    -1.630    -0.582    -0.544  0.8539  0.2545  0.4539
              Bcc     0.0133     7.086     2.528     2.364 -0.3789  0.9020  0.2071
 
              Baa    -0.1178   -62.837   -22.422   -20.960 -0.3232 -0.2006  0.9248
     8 H(1)   Bbb    -0.0955   -50.955   -18.182   -16.997 -0.3594  0.9301  0.0762
              Bcc     0.2133   113.791    40.604    37.957  0.8754  0.3077  0.3727
 
              Baa    -0.0460   -24.520    -8.750    -8.179 -0.3503  0.3351  0.8746
     9 H(1)   Bbb    -0.0061    -3.246    -1.158    -1.083  0.8633 -0.2466  0.4403
              Bcc     0.0520    27.767     9.908     9.262  0.3632  0.9093 -0.2029
 
              Baa    -0.0457   -24.382    -8.700    -8.133 -0.0979  0.9827  0.1573
    10 H(1)   Bbb    -0.0052    -2.783    -0.993    -0.928  0.9864  0.0748  0.1466
              Bcc     0.0509    27.165     9.693     9.061 -0.1323 -0.1695  0.9766
 
              Baa    -0.0109    -5.810    -2.073    -1.938  0.2087  0.0798  0.9747
    11 H(1)   Bbb    -0.0021    -1.104    -0.394    -0.368 -0.2613  0.9650 -0.0231
              Bcc     0.0130     6.914     2.467     2.306  0.9424  0.2499 -0.2222
 
              Baa    -0.0137    -7.302    -2.605    -2.436  0.0240  0.0158  0.9996
    12 H(1)   Bbb    -0.0057    -3.025    -1.079    -1.009  0.9997  0.0008 -0.0241
              Bcc     0.0194    10.326     3.685     3.444 -0.0012  0.9999 -0.0158
 

 ---------------------------------------------------------------------------------

 No NMR shielding tensors so no spin-rotation constants.
 Leave Link  601 at Sat Jun 22 13:14:06 2019, MaxMem=   671088640 cpu:              35.9 elap:               2.3
 (Enter /shared/centos7/gaussian/g16/l9999.exe)
 1\1\GINC-C0304\FOpt\UM062X\CC-pVTZ\C2H7O3(2)\HARMS.N\22-Jun-2019\0\\#p
  m062x/cc-pVTZ Opt=(ModRedun,Loose,maxcycles=900) Int(Grid=SG1) scf=(m
 axcycle=900)\\Gaussian input prepared by ASE\\0,2\O,-2.4460520311,0.29
 92394679,1.1907538143\O,-1.0831366675,4.6218636756,1.7117993234\O,-0.7
 795891905,4.1817450484,0.431011594\C,-2.0349545136,1.565472913,0.69690
 72206\C,-0.5758886316,1.8108264773,0.9420837037\H,-2.2711802557,1.6739
 185666,-0.3649572569\H,-2.6364193468,2.2949872568,1.2400979649\H,-0.34
 46105789,3.1120915579,0.5862034679\H,0.1089815393,1.2487458852,0.30885
 11023\H,-0.2786669326,1.835717658,1.9877268176\H,-1.9764708239,-0.3860
 094433,0.708508822\H,-2.0461797891,4.5559782409,1.7385192751\\Version=
 EM64L-G16RevA.03\State=2-A\HF=-305.8911677\S2=0.760497\S2-1=0.\S2A=0.7
 50054\RMSD=9.829e-09\RMSF=2.542e-03\Dipole=-0.1086415,-0.5674805,-0.27
 17193\Quadrupole=0.0295989,-0.4260257,0.3964268,-5.5538336,-0.2512912,
 3.3222063\PG=C01 [X(C2H7O3)]\\@


 THE MORE PROGRESS PHYSICAL SCIENCES MAKE, THE MORE THEY TEND TO ENTER
 THE DOMAIN OF MATHEMATICS, WHICH IS A KIND OF CENTRE TO WHICH THEY ALL
 CONVERGE.  WE MAY EVEN JUDGE THE DEGREE OF PERFECTION TO WHICH A 
 SCIENCE HAS ARRIVED BY THE FACILITY WITH WHICH IT MAY BE SUBMITTED
 TO CALCULATION.

                               -- ADOLPHE QUETELET, 1796-1874
 Job cpu time:       0 days 14 hours  7 minutes 41.8 seconds.
 Elapsed time:       0 days  0 hours 45 minutes  4.2 seconds.
 File lengths (MBytes):  RWF=    304 Int=      0 D2E=      0 Chk=     32 Scr=     32
 Normal termination of Gaussian 16 at Sat Jun 22 13:14:07 2019.
