 Entering Gaussian System, Link 0=g16
 Initial command:
 /shared/centos7/gaussian/g16/l1.exe "/scratch/harms.n/gauss_scrdir/Gau-5723.inp" -scrdir="/scratch/harms.n/gauss_scrdir/"
 Entering Link 1 = /shared/centos7/gaussian/g16/l1.exe PID=      5724.
  
 Copyright (c) 1988,1990,1992,1993,1995,1998,2003,2009,2016,
            Gaussian, Inc.  All Rights Reserved.
  
 This is part of the Gaussian(R) 16 program.  It is based on
 the Gaussian(R) 09 system (copyright 2009, Gaussian, Inc.),
 the Gaussian(R) 03 system (copyright 2003, Gaussian, Inc.),
 the Gaussian(R) 98 system (copyright 1998, Gaussian, Inc.),
 the Gaussian(R) 94 system (copyright 1995, Gaussian, Inc.),
 the Gaussian 92(TM) system (copyright 1992, Gaussian, Inc.),
 the Gaussian 90(TM) system (copyright 1990, Gaussian, Inc.),
 the Gaussian 88(TM) system (copyright 1988, Gaussian, Inc.),
 the Gaussian 86(TM) system (copyright 1986, Carnegie Mellon
 University), and the Gaussian 82(TM) system (copyright 1983,
 Carnegie Mellon University). Gaussian is a federally registered
 trademark of Gaussian, Inc.
  
 This software contains proprietary and confidential information,
 including trade secrets, belonging to Gaussian, Inc.
  
 This software is provided under written license and may be
 used, copied, transmitted, or stored only in accord with that
 written license.
  
 The following legend is applicable only to US Government
 contracts under FAR:
  
                    RESTRICTED RIGHTS LEGEND
  
 Use, reproduction and disclosure by the US Government is
 subject to restrictions as set forth in subparagraphs (a)
 and (c) of the Commercial Computer Software - Restricted
 Rights clause in FAR 52.227-19.
  
 Gaussian, Inc.
 340 Quinnipiac St., Bldg. 40, Wallingford CT 06492
  
  
 ---------------------------------------------------------------
 Warning -- This program may not be used in any manner that
 competes with the business of Gaussian, Inc. or will provide
 assistance to any competitor of Gaussian, Inc.  The licensee
 of this program is prohibited from giving any competitor of
 Gaussian, Inc. access to this program.  By using this program,
 the user acknowledges that Gaussian, Inc. is engaged in the
 business of creating and licensing software in the field of
 computational chemistry and represents and warrants to the
 licensee that it is not a competitor of Gaussian, Inc. and that
 it will not use this program in any manner prohibited above.
 ---------------------------------------------------------------
  

 Cite this work as:
 Gaussian 16, Revision A.03,
 M. J. Frisch, G. W. Trucks, H. B. Schlegel, G. E. Scuseria, 
 M. A. Robb, J. R. Cheeseman, G. Scalmani, V. Barone, 
 G. A. Petersson, H. Nakatsuji, X. Li, M. Caricato, A. V. Marenich, 
 J. Bloino, B. G. Janesko, R. Gomperts, B. Mennucci, H. P. Hratchian, 
 J. V. Ortiz, A. F. Izmaylov, J. L. Sonnenberg, D. Williams-Young, 
 F. Ding, F. Lipparini, F. Egidi, J. Goings, B. Peng, A. Petrone, 
 T. Henderson, D. Ranasinghe, V. G. Zakrzewski, J. Gao, N. Rega, 
 G. Zheng, W. Liang, M. Hada, M. Ehara, K. Toyota, R. Fukuda, 
 J. Hasegawa, M. Ishida, T. Nakajima, Y. Honda, O. Kitao, H. Nakai, 
 T. Vreven, K. Throssell, J. A. Montgomery, Jr., J. E. Peralta, 
 F. Ogliaro, M. J. Bearpark, J. J. Heyd, E. N. Brothers, K. N. Kudin, 
 V. N. Staroverov, T. A. Keith, R. Kobayashi, J. Normand, 
 K. Raghavachari, A. P. Rendell, J. C. Burant, S. S. Iyengar, 
 J. Tomasi, M. Cossi, J. M. Millam, M. Klene, C. Adamo, R. Cammi, 
 J. W. Ochterski, R. L. Martin, K. Morokuma, O. Farkas, 
 J. B. Foresman, and D. J. Fox, Gaussian, Inc., Wallingford CT, 2016.
 
 ******************************************
 Gaussian 16:  EM64L-G16RevA.03 25-Dec-2016
                30-May-2019 
 ******************************************
 %nprocshared=20
 Will use up to   20 processors via shared memory.
 %mem=5GB
 ----------------------------------------------------------------------
 #p m062x/cc-pVTZ Opt=(ts,calcfc,noeigentest,ModRedun,maxcycles=900) sc
 f=(maxcycle=900)
 ----------------------------------------------------------------------
 1/5=1,6=900,10=4,11=1,18=120,26=3,38=1/1,3;
 2/9=110,12=2,17=6,18=5,40=1/2;
 3/5=16,6=1,11=2,25=1,30=1,71=2,74=-55,140=1/1,2,3;
 4//1;
 5/5=2,7=900,38=5/2;
 8/6=4,10=90,11=11/1;
 11/6=1,8=1,9=11,15=111,16=1/1,2,10;
 10/6=1,13=1/2;
 6/7=2,8=2,9=2,10=2,28=1/1;
 7/10=1,18=20,25=1/1,2,3,16;
 1/5=1,6=900,10=4,11=1,18=20,26=3/3(2);
 2/9=110/2;
 99//99;
 2/9=110/2;
 3/5=16,6=1,11=2,25=1,30=1,71=1,74=-55/1,2,3;
 4/5=5,16=3,69=1/1;
 5/5=2,7=900,38=5/2;
 7//1,2,3,16;
 1/5=1,6=900,11=1,18=20,26=3/3(-5);
 2/9=110/2;
 6/7=2,8=2,9=2,10=2,19=2,28=1/1;
 99/9=1/99;
 Leave Link    1 at Thu May 30 06:40:22 2019, MaxMem=   671088640 cpu:              26.8 elap:               1.4
 (Enter /shared/centos7/gaussian/g16/l101.exe)
 ------------------------------
 Gaussian input prepared by ASE
 ------------------------------
 Symbolic Z-matrix:
 Charge =  0 Multiplicity = 2
 O                    -0.82423  -1.18656  -0.39326 
 O                     1.61094  -0.45856   0.46317 
 O                     1.46665   0.54327  -0.40215 
 C                    -1.30127  -0.11981   0.43383 
 C                    -0.81911   1.23569  -0.03053 
 H                    -2.39321  -0.15593   0.47976 
 H                    -0.92138  -0.33803   1.43179 
 H                    -1.16206   1.45006  -1.04501 
 H                    -1.17351   2.02448   0.63271 
 H                    -0.98781  -0.95554  -1.31227 
 H                     0.99635  -1.13845   0.11453 
 H                     0.33708   1.23296  -0.06341 
 
 Add virtual bond connecting atoms H12        and O3         Dist= 2.58D+00.
 The following ModRedundant input section has been read:
 B       1       2 F                                                           
 B       1       4 F                                                           
 B       1       6 F                                                           
 B       1       7 F                                                           
 B       1       8 F                                                           
 B       1       9 F                                                           
 B       1      10 F                                                           
 B       1      11 F                                                           
 B       2       4 F                                                           
 B       2       6 F                                                           
 B       2       7 F                                                           
 B       2       8 F                                                           
 B       2       9 F                                                           
 B       2      10 F                                                           
 B       2      11 F                                                           
 B       4       6 F                                                           
 B       4       7 F                                                           
 B       4       8 F                                                           
 B       4       9 F                                                           
 B       4      10 F                                                           
 B       4      11 F                                                           
 B       6       7 F                                                           
 B       6       8 F                                                           
 B       6       9 F                                                           
 B       6      10 F                                                           
 B       6      11 F                                                           
 B       7       8 F                                                           
 B       7       9 F                                                           
 B       7      10 F                                                           
 B       7      11 F                                                           
 B       8       9 F                                                           
 B       8      10 F                                                           
 B       8      11 F                                                           
 B       9      10 F                                                           
 B       9      11 F                                                           
 B      10      11 F                                                           
 
 ITRead=  0  0  0  0  0  0  0  0  0  0  0  0
 MicOpt= -1 -1 -1 -1 -1 -1 -1 -1 -1 -1 -1 -1
 NAtoms=     12 NQM=       12 NQMF=       0 NMMI=      0 NMMIF=      0
                NMic=       0 NMicF=      0.
                    Isotopes and Nuclear Properties:
 (Nuclear quadrupole moments (NQMom) in fm**2, nuclear magnetic moments (NMagM)
  in nuclear magnetons)

  Atom         1           2           3           4           5           6           7           8           9          10
 IAtWgt=          16          16          16          12          12           1           1           1           1           1
 AtmWgt=  15.9949146  15.9949146  15.9949146  12.0000000  12.0000000   1.0078250   1.0078250   1.0078250   1.0078250   1.0078250
 NucSpn=           0           0           0           0           0           1           1           1           1           1
 AtZEff=  -0.0000000  -0.0000000  -0.0000000  -0.0000000  -0.0000000  -0.0000000  -0.0000000  -0.0000000  -0.0000000  -0.0000000
 NQMom=    0.0000000   0.0000000   0.0000000   0.0000000   0.0000000   0.0000000   0.0000000   0.0000000   0.0000000   0.0000000
 NMagM=    0.0000000   0.0000000   0.0000000   0.0000000   0.0000000   2.7928460   2.7928460   2.7928460   2.7928460   2.7928460
 AtZNuc=   8.0000000   8.0000000   8.0000000   6.0000000   6.0000000   1.0000000   1.0000000   1.0000000   1.0000000   1.0000000

  Atom        11          12
 IAtWgt=           1           1
 AtmWgt=   1.0078250   1.0078250
 NucSpn=           1           1
 AtZEff=  -0.0000000  -0.0000000
 NQMom=    0.0000000   0.0000000
 NMagM=    2.7928460   2.7928460
 AtZNuc=   1.0000000   1.0000000
 Leave Link  101 at Thu May 30 06:40:22 2019, MaxMem=   671088640 cpu:               5.2 elap:               0.3
 (Enter /shared/centos7/gaussian/g16/l103.exe)

 GradGradGradGradGradGradGradGradGradGradGradGradGradGradGradGradGradGrad
 Berny optimization.
 Initialization pass.
                           ----------------------------
                           !    Initial Parameters    !
                           ! (Angstroms and Degrees)  !
 --------------------------                            --------------------------
 ! Name  Definition              Value          Derivative Info.                !
 --------------------------------------------------------------------------------
 ! R1    R(1,2)                  2.6821         frozen, calculate D2E/DX2 analyt!
 ! R2    R(1,4)                  1.4316         frozen, calculate D2E/DX2 analyt!
 ! R3    R(1,6)                  2.0703         frozen, calculate D2E/DX2 analyt!
 ! R4    R(1,7)                  2.015          frozen, calculate D2E/DX2 analyt!
 ! R5    R(1,8)                  2.7369         frozen, calculate D2E/DX2 analyt!
 ! R6    R(1,9)                  3.389          frozen, calculate D2E/DX2 analyt!
 ! R7    R(1,10)                 0.9616         frozen, calculate D2E/DX2 analyt!
 ! R8    R(1,11)                 1.8907         frozen, calculate D2E/DX2 analyt!
 ! R9    R(2,3)                  1.3316         calculate D2E/DX2 analytically  !
 ! R10   R(2,4)                  2.932          frozen, calculate D2E/DX2 analyt!
 ! R11   R(2,6)                  4.0156         frozen, calculate D2E/DX2 analyt!
 ! R12   R(2,7)                  2.7139         frozen, calculate D2E/DX2 analyt!
 ! R13   R(2,8)                  3.6888         frozen, calculate D2E/DX2 analyt!
 ! R14   R(2,9)                  3.7346         frozen, calculate D2E/DX2 analyt!
 ! R15   R(2,10)                 3.1863         frozen, calculate D2E/DX2 analyt!
 ! R16   R(2,11)                 0.9806         frozen, calculate D2E/DX2 analyt!
 ! R17   R(3,12)                 1.3661         calculate D2E/DX2 analytically  !
 ! R18   R(4,5)                  1.5118         calculate D2E/DX2 analytically  !
 ! R19   R(4,6)                  1.0935         frozen, calculate D2E/DX2 analyt!
 ! R20   R(4,7)                  1.0899         frozen, calculate D2E/DX2 analyt!
 ! R21   R(4,8)                  2.1612         frozen, calculate D2E/DX2 analyt!
 ! R22   R(4,9)                  2.1573         frozen, calculate D2E/DX2 analyt!
 ! R23   R(4,10)                 1.961          frozen, calculate D2E/DX2 analyt!
 ! R24   R(4,11)                 2.5335         frozen, calculate D2E/DX2 analyt!
 ! R25   R(5,8)                  1.0921         calculate D2E/DX2 analytically  !
 ! R26   R(5,9)                  1.0898         calculate D2E/DX2 analytically  !
 ! R27   R(5,12)                 1.1567         calculate D2E/DX2 analytically  !
 ! R28   R(6,7)                  1.7623         frozen, calculate D2E/DX2 analyt!
 ! R29   R(6,8)                  2.5337         frozen, calculate D2E/DX2 analyt!
 ! R30   R(6,9)                  2.5031         frozen, calculate D2E/DX2 analyt!
 ! R31   R(6,10)                 2.4137         frozen, calculate D2E/DX2 analyt!
 ! R32   R(6,11)                 3.5479         frozen, calculate D2E/DX2 analyt!
 ! R33   R(7,8)                  3.0643         frozen, calculate D2E/DX2 analyt!
 ! R34   R(7,9)                  2.5067         frozen, calculate D2E/DX2 analyt!
 ! R35   R(7,10)                 2.8135         frozen, calculate D2E/DX2 analyt!
 ! R36   R(7,11)                 2.4604         frozen, calculate D2E/DX2 analyt!
 ! R37   R(8,9)                  1.7734         frozen, calculate D2E/DX2 analyt!
 ! R38   R(8,10)                 2.4267         frozen, calculate D2E/DX2 analyt!
 ! R39   R(8,11)                 3.5642         frozen, calculate D2E/DX2 analyt!
 ! R40   R(9,10)                 3.5634         frozen, calculate D2E/DX2 analyt!
 ! R41   R(9,11)                 3.8705         frozen, calculate D2E/DX2 analyt!
 ! R42   R(10,11)                2.4507         frozen, calculate D2E/DX2 analyt!
 ! A1    A(4,1,10)             108.4474         calculate D2E/DX2 analytically  !
 ! A2    A(3,2,11)             102.8663         calculate D2E/DX2 analytically  !
 ! A3    A(2,3,12)             107.9553         calculate D2E/DX2 analytically  !
 ! A4    A(1,4,5)              112.6045         calculate D2E/DX2 analytically  !
 ! A5    A(1,4,6)              109.4138         calculate D2E/DX2 analytically  !
 ! A6    A(1,4,7)              105.2871         calculate D2E/DX2 analytically  !
 ! A7    A(5,4,6)              111.1618         calculate D2E/DX2 analytically  !
 ! A8    A(5,4,7)              110.4631         calculate D2E/DX2 analytically  !
 ! A9    A(6,4,7)              107.6373         calculate D2E/DX2 analytically  !
 ! A10   A(4,5,8)              111.1717         calculate D2E/DX2 analytically  !
 ! A11   A(4,5,9)              110.9972         calculate D2E/DX2 analytically  !
 ! A12   A(4,5,12)             108.9916         calculate D2E/DX2 analytically  !
 ! A13   A(8,5,9)              108.7308         calculate D2E/DX2 analytically  !
 ! A14   A(8,5,12)             106.7351         calculate D2E/DX2 analytically  !
 ! A15   A(9,5,12)             110.1249         calculate D2E/DX2 analytically  !
 ! A16   A(3,12,5)             146.5878         calculate D2E/DX2 analytically  !
 ! D1    D(10,1,4,5)           -48.8452         calculate D2E/DX2 analytically  !
 ! D2    D(10,1,4,6)            75.3039         calculate D2E/DX2 analytically  !
 ! D3    D(10,1,4,7)          -169.2686         calculate D2E/DX2 analytically  !
 ! D4    D(11,2,3,12)           80.7753         calculate D2E/DX2 analytically  !
 ! D5    D(2,3,12,5)           -71.5577         calculate D2E/DX2 analytically  !
 ! D6    D(1,4,5,8)             60.4497         calculate D2E/DX2 analytically  !
 ! D7    D(1,4,5,9)           -178.3849         calculate D2E/DX2 analytically  !
 ! D8    D(1,4,5,12)           -56.9286         calculate D2E/DX2 analytically  !
 ! D9    D(6,4,5,8)            -62.7292         calculate D2E/DX2 analytically  !
 ! D10   D(6,4,5,9)             58.4362         calculate D2E/DX2 analytically  !
 ! D11   D(6,4,5,12)           179.8925         calculate D2E/DX2 analytically  !
 ! D12   D(7,4,5,8)            177.8492         calculate D2E/DX2 analytically  !
 ! D13   D(7,4,5,9)            -60.9854         calculate D2E/DX2 analytically  !
 ! D14   D(7,4,5,12)            60.4709         calculate D2E/DX2 analytically  !
 ! D15   D(4,5,12,3)            42.4113         calculate D2E/DX2 analytically  !
 ! D16   D(8,5,12,3)           -77.7431         calculate D2E/DX2 analytically  !
 ! D17   D(9,5,12,3)           164.397          calculate D2E/DX2 analytically  !
 --------------------------------------------------------------------------------
 Trust Radius=3.00D-01 FncErr=1.00D-07 GrdErr=1.00D-06 EigMax=2.50D+02 EigMin=1.00D-04
 Number of steps in this run=    100 maximum allowed number of steps=    100.
 Search for a saddle point of order  1.
 GradGradGradGradGradGradGradGradGradGradGradGradGradGradGradGradGradGrad

 Leave Link  103 at Thu May 30 06:40:22 2019, MaxMem=   671088640 cpu:               0.1 elap:               0.0
 (Enter /shared/centos7/gaussian/g16/l202.exe)
                          Input orientation:                          
 ---------------------------------------------------------------------
 Center     Atomic      Atomic             Coordinates (Angstroms)
 Number     Number       Type             X           Y           Z
 ---------------------------------------------------------------------
      1          8           0       -0.824230   -1.186557   -0.393257
      2          8           0        1.610936   -0.458564    0.463171
      3          8           0        1.466646    0.543268   -0.402153
      4          6           0       -1.301273   -0.119809    0.433830
      5          6           0       -0.819106    1.235686   -0.030525
      6          1           0       -2.393209   -0.155930    0.479755
      7          1           0       -0.921383   -0.338028    1.431789
      8          1           0       -1.162059    1.450061   -1.045013
      9          1           0       -1.173506    2.024485    0.632713
     10          1           0       -0.987812   -0.955540   -1.312273
     11          1           0        0.996346   -1.138454    0.114527
     12          1           0        0.337081    1.232961   -0.063407
 ---------------------------------------------------------------------
                    Distance matrix (angstroms):
                    1          2          3          4          5
     1  O    0.000000
     2  O    2.682066   0.000000
     3  O    2.870625   1.331643   0.000000
     4  C    1.431640   2.931992   2.966465   0.000000
     5  C    2.449257   3.003219   2.417067   1.511780   0.000000
     6  H    2.070275   4.015600   4.020587   1.093498   2.162124
     7  H    2.015002   2.713925   3.137309   1.089889   2.150674
     8  H    2.736909   3.688763   2.854055   2.161215   1.092135
     9  H    3.389011   3.734621   3.199274   2.157284   1.089811
    10  H    0.961623   3.186327   3.016473   1.961015   2.544172
    11  H    1.890676   0.980573   1.821079   2.533505   2.992231
    12  H    2.703981   2.182028   1.366141   2.182071   1.156658
                    6          7          8          9         10
     6  H    0.000000
     7  H    1.762328   0.000000
     8  H    2.533743   3.064268   0.000000
     9  H    2.503054   2.506702   1.773375   0.000000
    10  H    2.413686   2.813469   2.426666   3.563426   0.000000
    11  H    3.547933   2.460395   3.564219   3.870524   2.450734
    12  H    3.111033   2.507459   1.805022   1.842001   2.846848
                   11         12
    11  H    0.000000
    12  H    2.467772   0.000000
 Stoichiometry    C2H7O3(2)
 Framework group  C1[X(C2H7O3)]
 Deg. of freedom    30
 Full point group                 C1      NOp   1
 Largest Abelian subgroup         C1      NOp   1
 Largest concise Abelian subgroup C1      NOp   1
                         Standard orientation:                         
 ---------------------------------------------------------------------
 Center     Atomic      Atomic             Coordinates (Angstroms)
 Number     Number       Type             X           Y           Z
 ---------------------------------------------------------------------
      1          8           0       -0.824230   -1.186557   -0.393257
      2          8           0        1.610936   -0.458564    0.463171
      3          8           0        1.466646    0.543268   -0.402153
      4          6           0       -1.301273   -0.119809    0.433830
      5          6           0       -0.819106    1.235686   -0.030525
      6          1           0       -2.393209   -0.155930    0.479755
      7          1           0       -0.921383   -0.338028    1.431789
      8          1           0       -1.162059    1.450061   -1.045013
      9          1           0       -1.173506    2.024485    0.632713
     10          1           0       -0.987812   -0.955540   -1.312273
     11          1           0        0.996346   -1.138454    0.114527
     12          1           0        0.337081    1.232961   -0.063407
 ---------------------------------------------------------------------
 Rotational constants (GHZ):           6.7074852           3.5403162           2.7247928
 Leave Link  202 at Thu May 30 06:40:22 2019, MaxMem=   671088640 cpu:               0.9 elap:               0.1
 (Enter /shared/centos7/gaussian/g16/l301.exe)
 Standard basis: CC-pVTZ (5D, 7F)
 Ernie: Thresh=  0.10000D-02 Tol=  0.10000D-05 Strict=F.
 Ernie:  15 primitive shells out of 186 were deleted.
 There are   280 symmetry adapted cartesian basis functions of A   symmetry.
 There are   248 symmetry adapted basis functions of A   symmetry.
   248 basis functions,   379 primitive gaussians,   280 cartesian basis functions
    22 alpha electrons       21 beta electrons
       nuclear repulsion energy       197.7390614838 Hartrees.
 IExCor= 4336 DFT=T Ex+Corr=M062X ExCW=0 ScaHFX=  0.540000
 ScaDFX=  1.000000  1.000000  1.000000  1.000000 ScalE2=  1.000000  1.000000
 IRadAn=      5 IRanWt=     -1 IRanGd=            0 ICorTp=0 IEmpDi=  4
 NAtoms=   12 NActive=   12 NUniq=   12 SFac= 1.00D+00 NAtFMM=   60 NAOKFM=F Big=F
 Integral buffers will be    131072 words long.
 Raffenetti 2 integral format.
 Two-electron integral symmetry is turned on.
 Leave Link  301 at Thu May 30 06:40:22 2019, MaxMem=   671088640 cpu:               0.8 elap:               0.1
 (Enter /shared/centos7/gaussian/g16/l302.exe)
 NPDir=0 NMtPBC=     1 NCelOv=     1 NCel=       1 NClECP=     1 NCelD=      1
         NCelK=      1 NCelE2=     1 NClLst=     1 CellRange=     0.0.
 One-electron integrals computed using PRISM.
 One-electron integral symmetry used in STVInt
 NBasis=   248 RedAO= T EigKep=  7.98D-04  NBF=   248
 NBsUse=   248 1.00D-06 EigRej= -1.00D+00 NBFU=   248
 Precomputing XC quadrature grid using
 IXCGrd= 4 IRadAn=           5 IRanWt=          -1 IRanGd=           0 AccXCQ= 0.00D+00.
 Generated NRdTot=       0 NPtTot=           0 NUsed=           0 NTot=          32
 NSgBfM=   280   280   280   280   280 MxSgAt=    12 MxSgA2=    12.
 Leave Link  302 at Thu May 30 06:40:23 2019, MaxMem=   671088640 cpu:               7.3 elap:               0.4
 (Enter /shared/centos7/gaussian/g16/l303.exe)
 DipDrv:  MaxL=1.
 Leave Link  303 at Thu May 30 06:40:23 2019, MaxMem=   671088640 cpu:               0.9 elap:               0.1
 (Enter /shared/centos7/gaussian/g16/l401.exe)
 ExpMin= 1.03D-01 ExpMax= 1.53D+04 ExpMxC= 5.22D+02 IAcc=3 IRadAn=         5 AccDes= 0.00D+00
 Harris functional with IExCor= 1009 and IRadAn=       5 diagonalized for initial guess.
 HarFok:  IExCor= 1009 AccDes= 0.00D+00 IRadAn=         5 IDoV= 1 UseB2=F ITyADJ=14
 ICtDFT=  3500011 ScaDFX=  1.000000  1.000000  1.000000  1.000000
 FoFCou: FMM=F IPFlag=           0 FMFlag=      100000 FMFlg1=           0
         NFxFlg=           0 DoJE=T BraDBF=F KetDBF=T FulRan=T
         wScrn=  0.000000 ICntrl=       500 IOpCl=  0 I1Cent=   200000004 NGrid=           0
         NMat0=    1 NMatS0=      1 NMatT0=    0 NMatD0=    1 NMtDS0=    0 NMtDT0=    0
 Petite list used in FoFCou.
 Harris En= -305.790476259394    
 JPrj=0 DoOrth=F DoCkMO=F.
 Initial guess <Sx>= 0.0000 <Sy>= 0.0000 <Sz>= 0.5000 <S**2>= 0.7500 S= 0.5000
 Leave Link  401 at Thu May 30 06:40:24 2019, MaxMem=   671088640 cpu:              19.9 elap:               1.0
 (Enter /shared/centos7/gaussian/g16/l502.exe)
 Integral symmetry usage will be decided dynamically.
 UHF open shell SCF:
 Using DIIS extrapolation, IDIIS=  1040.
 NGot=   671088640 LenX=   670923676 LenY=   670844835
 Requested convergence on RMS density matrix=1.00D-08 within 900 cycles.
 Requested convergence on MAX density matrix=1.00D-06.
 Requested convergence on             energy=1.00D-06.
 No special actions if energy rises.
 Fock matrices will be formed incrementally for  20 cycles.
 Integral accuracy reduced to 1.0D-05 until final iterations.

 Cycle   1  Pass 0  IDiag  1:
 FoFJK:  IHMeth= 1 ICntrl=       0 DoSepK=F KAlg= 0 I1Cent=           0 FoldK=F
 IRaf= 990000000 NMat=       1 IRICut=       1 DoRegI=T DoRafI=F ISym2E= 0 IDoP0=0 IntGTp=1.
 FoFCou: FMM=F IPFlag=           0 FMFlag=      100000 FMFlg1=           0
         NFxFlg=           0 DoJE=F BraDBF=F KetDBF=F FulRan=T
         wScrn=  0.000000 ICntrl=         0 IOpCl=  1 I1Cent=           0 NGrid=           0
         NMat0=    1 NMatS0=      1 NMatT0=    0 NMatD0=    1 NMtDS0=    0 NMtDT0=    0
 Symmetry not used in FoFCou.
 E= -305.760919864064    
 DIIS: error= 2.01D-02 at cycle   1 NSaved=   1.
 NSaved= 1 IEnMin= 1 EnMin= -305.760919864064     IErMin= 1 ErrMin= 2.01D-02
 ErrMax= 2.01D-02  0.00D+00 EMaxC= 1.00D-01 BMatC= 8.28D-01 BMatP= 8.28D-01
 IDIUse=3 WtCom= 7.99D-01 WtEn= 2.01D-01
 Coeff-Com:  0.100D+01
 Coeff-En:   0.100D+01
 Coeff:      0.100D+01
 Gap=     0.409 Goal=   None    Shift=    0.000
 Gap=     0.299 Goal=   None    Shift=    0.000
 GapD=    0.299 DampG=1.000 DampE=0.500 DampFc=0.5000 IDamp=-1.
 Damping current iteration by 5.00D-01
 RMSDP=2.04D-03 MaxDP=9.14D-02              OVMax= 1.97D-01

 Cycle   2  Pass 0  IDiag  1:
 RMSU=  1.02D-03    CP:  1.00D+00
 E= -305.836676679890     Delta-E=       -0.075756815826 Rises=F Damp=T
 DIIS: error= 4.54D-03 at cycle   2 NSaved=   2.
 NSaved= 2 IEnMin= 2 EnMin= -305.836676679890     IErMin= 2 ErrMin= 4.54D-03
 ErrMax= 4.54D-03  0.00D+00 EMaxC= 1.00D-01 BMatC= 7.76D-02 BMatP= 8.28D-01
 IDIUse=3 WtCom= 9.55D-01 WtEn= 4.54D-02
 Coeff-Com: -0.111D+00 0.111D+01
 Coeff-En:   0.000D+00 0.100D+01
 Coeff:     -0.106D+00 0.111D+01
 Gap=     0.388 Goal=   None    Shift=    0.000
 Gap=     0.314 Goal=   None    Shift=    0.000
 RMSDP=5.11D-04 MaxDP=1.54D-02 DE=-7.58D-02 OVMax= 1.02D-01

 Cycle   3  Pass 0  IDiag  1:
 RMSU=  5.08D-04    CP:  1.00D+00  9.74D-01
 E= -305.909129409179     Delta-E=       -0.072452729289 Rises=F Damp=F
 DIIS: error= 3.22D-03 at cycle   3 NSaved=   3.
 NSaved= 3 IEnMin= 3 EnMin= -305.909129409179     IErMin= 3 ErrMin= 3.22D-03
 ErrMax= 3.22D-03  0.00D+00 EMaxC= 1.00D-01 BMatC= 2.11D-02 BMatP= 7.76D-02
 IDIUse=3 WtCom= 9.68D-01 WtEn= 3.22D-02
 Coeff-Com: -0.101D+00 0.375D+00 0.726D+00
 Coeff-En:   0.000D+00 0.000D+00 0.100D+01
 Coeff:     -0.978D-01 0.363D+00 0.735D+00
 Gap=     0.383 Goal=   None    Shift=    0.000
 Gap=     0.279 Goal=   None    Shift=    0.000
 RMSDP=2.05D-04 MaxDP=7.53D-03 DE=-7.25D-02 OVMax= 2.42D-02

 Cycle   4  Pass 0  IDiag  1:
 RMSU=  1.62D-04    CP:  1.00D+00  1.05D+00  8.05D-01
 E= -305.912238547597     Delta-E=       -0.003109138418 Rises=F Damp=F
 DIIS: error= 2.21D-03 at cycle   4 NSaved=   4.
 NSaved= 4 IEnMin= 4 EnMin= -305.912238547597     IErMin= 4 ErrMin= 2.21D-03
 ErrMax= 2.21D-03  0.00D+00 EMaxC= 1.00D-01 BMatC= 6.15D-03 BMatP= 2.11D-02
 IDIUse=3 WtCom= 9.78D-01 WtEn= 2.21D-02
 Coeff-Com: -0.400D-01 0.957D-01 0.391D+00 0.553D+00
 Coeff-En:   0.000D+00 0.000D+00 0.916D-01 0.908D+00
 Coeff:     -0.391D-01 0.936D-01 0.384D+00 0.561D+00
 Gap=     0.380 Goal=   None    Shift=    0.000
 Gap=     0.283 Goal=   None    Shift=    0.000
 RMSDP=8.26D-05 MaxDP=3.01D-03 DE=-3.11D-03 OVMax= 8.52D-03

 Cycle   5  Pass 0  IDiag  1:
 RMSU=  6.81D-05    CP:  1.00D+00  1.06D+00  8.72D-01  8.01D-01
 E= -305.913216490052     Delta-E=       -0.000977942455 Rises=F Damp=F
 DIIS: error= 6.42D-04 at cycle   5 NSaved=   5.
 NSaved= 5 IEnMin= 5 EnMin= -305.913216490052     IErMin= 5 ErrMin= 6.42D-04
 ErrMax= 6.42D-04  0.00D+00 EMaxC= 1.00D-01 BMatC= 4.41D-04 BMatP= 6.15D-03
 IDIUse=3 WtCom= 9.94D-01 WtEn= 6.42D-03
 Coeff-Com: -0.687D-02 0.672D-02 0.103D+00 0.230D+00 0.668D+00
 Coeff-En:   0.000D+00 0.000D+00 0.000D+00 0.000D+00 0.100D+01
 Coeff:     -0.682D-02 0.668D-02 0.102D+00 0.228D+00 0.670D+00
 Gap=     0.379 Goal=   None    Shift=    0.000
 Gap=     0.283 Goal=   None    Shift=    0.000
 RMSDP=3.38D-05 MaxDP=2.36D-03 DE=-9.78D-04 OVMax= 8.36D-03

 Cycle   6  Pass 0  IDiag  1:
 RMSU=  2.94D-05    CP:  1.00D+00  1.05D+00  8.90D-01  8.80D-01  9.28D-01
 E= -305.913357077039     Delta-E=       -0.000140586987 Rises=F Damp=F
 DIIS: error= 3.68D-04 at cycle   6 NSaved=   6.
 NSaved= 6 IEnMin= 6 EnMin= -305.913357077039     IErMin= 6 ErrMin= 3.68D-04
 ErrMax= 3.68D-04  0.00D+00 EMaxC= 1.00D-01 BMatC= 1.57D-04 BMatP= 4.41D-04
 IDIUse=3 WtCom= 9.96D-01 WtEn= 3.68D-03
 Coeff-Com:  0.769D-02-0.221D-01-0.549D-01-0.867D-01 0.286D+00 0.870D+00
 Coeff-En:   0.000D+00 0.000D+00 0.000D+00 0.000D+00 0.000D+00 0.100D+01
 Coeff:      0.767D-02-0.220D-01-0.547D-01-0.864D-01 0.285D+00 0.870D+00
 Gap=     0.381 Goal=   None    Shift=    0.000
 Gap=     0.284 Goal=   None    Shift=    0.000
 RMSDP=3.04D-05 MaxDP=1.55D-03 DE=-1.41D-04 OVMax= 5.94D-03

 Cycle   7  Pass 0  IDiag  1:
 RMSU=  1.42D-05    CP:  1.00D+00  1.05D+00  8.97D-01  9.61D-01  1.24D+00
                    CP:  1.30D+00
 E= -305.913431372687     Delta-E=       -0.000074295648 Rises=F Damp=F
 DIIS: error= 1.22D-04 at cycle   7 NSaved=   7.
 NSaved= 7 IEnMin= 7 EnMin= -305.913431372687     IErMin= 7 ErrMin= 1.22D-04
 ErrMax= 1.22D-04  0.00D+00 EMaxC= 1.00D-01 BMatC= 2.54D-05 BMatP= 1.57D-04
 IDIUse=3 WtCom= 9.99D-01 WtEn= 1.22D-03
 Coeff-Com:  0.440D-02-0.808D-02-0.424D-01-0.108D+00-0.690D-01 0.219D+00
 Coeff-Com:  0.100D+01
 Coeff-En:   0.000D+00 0.000D+00 0.000D+00 0.000D+00 0.000D+00 0.000D+00
 Coeff-En:   0.100D+01
 Coeff:      0.440D-02-0.807D-02-0.423D-01-0.107D+00-0.690D-01 0.218D+00
 Coeff:      0.100D+01
 Gap=     0.381 Goal=   None    Shift=    0.000
 Gap=     0.285 Goal=   None    Shift=    0.000
 RMSDP=2.19D-05 MaxDP=1.49D-03 DE=-7.43D-05 OVMax= 6.20D-03

 Cycle   8  Pass 0  IDiag  1:
 RMSU=  8.76D-06    CP:  1.00D+00  1.05D+00  9.02D-01  1.00D+00  1.41D+00
                    CP:  1.74D+00  1.46D+00
 E= -305.913460539239     Delta-E=       -0.000029166552 Rises=F Damp=F
 DIIS: error= 7.82D-05 at cycle   8 NSaved=   8.
 NSaved= 8 IEnMin= 8 EnMin= -305.913460539239     IErMin= 8 ErrMin= 7.82D-05
 ErrMax= 7.82D-05  0.00D+00 EMaxC= 1.00D-01 BMatC= 7.63D-06 BMatP= 2.54D-05
 IDIUse=1 WtCom= 1.00D+00 WtEn= 0.00D+00
 Coeff-Com: -0.264D-03 0.195D-02 0.106D-02-0.158D-01-0.542D-01-0.116D+00
 Coeff-Com:  0.276D+00 0.907D+00
 Coeff:     -0.264D-03 0.195D-02 0.106D-02-0.158D-01-0.542D-01-0.116D+00
 Coeff:      0.276D+00 0.907D+00
 Gap=     0.381 Goal=   None    Shift=    0.000
 Gap=     0.285 Goal=   None    Shift=    0.000
 RMSDP=1.17D-05 MaxDP=7.96D-04 DE=-2.92D-05 OVMax= 3.88D-03

 Cycle   9  Pass 0  IDiag  1:
 RMSU=  4.35D-06    CP:  1.00D+00  1.05D+00  9.04D-01  1.02D+00  1.47D+00
                    CP:  1.94D+00  1.90D+00  1.56D+00
 E= -305.913469668052     Delta-E=       -0.000009128814 Rises=F Damp=F
 DIIS: error= 5.08D-05 at cycle   9 NSaved=   9.
 NSaved= 9 IEnMin= 9 EnMin= -305.913469668052     IErMin= 9 ErrMin= 5.08D-05
 ErrMax= 5.08D-05  0.00D+00 EMaxC= 1.00D-01 BMatC= 2.85D-06 BMatP= 7.63D-06
 IDIUse=1 WtCom= 1.00D+00 WtEn= 0.00D+00
 Coeff-Com: -0.183D-02 0.375D-02 0.204D-01 0.418D-01 0.182D-01-0.155D+00
 Coeff-Com: -0.339D+00 0.312D+00 0.110D+01
 Coeff:     -0.183D-02 0.375D-02 0.204D-01 0.418D-01 0.182D-01-0.155D+00
 Coeff:     -0.339D+00 0.312D+00 0.110D+01
 Gap=     0.381 Goal=   None    Shift=    0.000
 Gap=     0.285 Goal=   None    Shift=    0.000
 RMSDP=1.23D-05 MaxDP=7.90D-04 DE=-9.13D-06 OVMax= 4.59D-03

 Cycle  10  Pass 0  IDiag  1:
 RMSU=  3.27D-06    CP:  1.00D+00  1.05D+00  9.05D-01  1.03D+00  1.51D+00
                    CP:  2.12D+00  2.33D+00  2.37D+00  1.71D+00
 E= -305.913476064189     Delta-E=       -0.000006396137 Rises=F Damp=F
 DIIS: error= 3.18D-05 at cycle  10 NSaved=  10.
 NSaved=10 IEnMin=10 EnMin= -305.913476064189     IErMin=10 ErrMin= 3.18D-05
 ErrMax= 3.18D-05  0.00D+00 EMaxC= 1.00D-01 BMatC= 9.21D-07 BMatP= 2.85D-06
 IDIUse=1 WtCom= 1.00D+00 WtEn= 0.00D+00
 Coeff-Com:  0.524D-03-0.130D-02-0.387D-02-0.487D-02 0.919D-02 0.617D-01
 Coeff-Com:  0.300D-03-0.348D+00-0.153D+00 0.144D+01
 Coeff:      0.524D-03-0.130D-02-0.387D-02-0.487D-02 0.919D-02 0.617D-01
 Coeff:      0.300D-03-0.348D+00-0.153D+00 0.144D+01
 Gap=     0.381 Goal=   None    Shift=    0.000
 Gap=     0.285 Goal=   None    Shift=    0.000
 RMSDP=9.72D-06 MaxDP=6.21D-04 DE=-6.40D-06 OVMax= 3.69D-03

 Initial convergence to 1.0D-05 achieved.  Increase integral accuracy.
 Cycle  11  Pass 1  IDiag  1:
 E= -305.913534195631     Delta-E=       -0.000058131442 Rises=F Damp=F
 DIIS: error= 2.36D-05 at cycle   1 NSaved=   1.
 NSaved= 1 IEnMin= 1 EnMin= -305.913534195631     IErMin= 1 ErrMin= 2.36D-05
 ErrMax= 2.36D-05  0.00D+00 EMaxC= 1.00D-01 BMatC= 1.51D-06 BMatP= 1.51D-06
 IDIUse=1 WtCom= 1.00D+00 WtEn= 0.00D+00
 Coeff-Com:  0.100D+01
 Coeff:      0.100D+01
 Gap=     0.381 Goal=   None    Shift=    0.000
 Gap=     0.285 Goal=   None    Shift=    0.000
 RMSDP=9.72D-06 MaxDP=6.21D-04 DE=-5.81D-05 OVMax= 1.04D-03

 Cycle  12  Pass 1  IDiag  1:
 RMSU=  5.51D-06    CP:  1.00D+00
 E= -305.913535067044     Delta-E=       -0.000000871413 Rises=F Damp=F
 DIIS: error= 1.61D-05 at cycle   2 NSaved=   2.
 NSaved= 2 IEnMin= 2 EnMin= -305.913535067044     IErMin= 2 ErrMin= 1.61D-05
 ErrMax= 1.61D-05  0.00D+00 EMaxC= 1.00D-01 BMatC= 2.54D-07 BMatP= 1.51D-06
 IDIUse=1 WtCom= 1.00D+00 WtEn= 0.00D+00
 Coeff-Com: -0.416D-01 0.104D+01
 Coeff:     -0.416D-01 0.104D+01
 Gap=     0.381 Goal=   None    Shift=    0.000
 Gap=     0.285 Goal=   None    Shift=    0.000
 RMSDP=2.47D-06 MaxDP=1.47D-04 DE=-8.71D-07 OVMax= 8.72D-04

 Cycle  13  Pass 1  IDiag  1:
 RMSU=  1.97D-06    CP:  1.00D+00  1.27D+00
 E= -305.913535551970     Delta-E=       -0.000000484926 Rises=F Damp=F
 DIIS: error= 1.32D-05 at cycle   3 NSaved=   3.
 NSaved= 3 IEnMin= 3 EnMin= -305.913535551970     IErMin= 3 ErrMin= 1.32D-05
 ErrMax= 1.32D-05  0.00D+00 EMaxC= 1.00D-01 BMatC= 1.77D-07 BMatP= 2.54D-07
 IDIUse=1 WtCom= 1.00D+00 WtEn= 0.00D+00
 Coeff-Com: -0.794D-01 0.243D+00 0.836D+00
 Coeff:     -0.794D-01 0.243D+00 0.836D+00
 Gap=     0.381 Goal=   None    Shift=    0.000
 Gap=     0.285 Goal=   None    Shift=    0.000
 RMSDP=1.77D-06 MaxDP=1.07D-04 DE=-4.85D-07 OVMax= 6.64D-04

 Cycle  14  Pass 1  IDiag  1:
 RMSU=  5.95D-07    CP:  1.00D+00  1.45D+00  1.69D+00
 E= -305.913535842654     Delta-E=       -0.000000290684 Rises=F Damp=F
 DIIS: error= 1.10D-05 at cycle   4 NSaved=   4.
 NSaved= 4 IEnMin= 4 EnMin= -305.913535842654     IErMin= 4 ErrMin= 1.10D-05
 ErrMax= 1.10D-05  0.00D+00 EMaxC= 1.00D-01 BMatC= 1.18D-07 BMatP= 1.77D-07
 IDIUse=1 WtCom= 1.00D+00 WtEn= 0.00D+00
 Coeff-Com:  0.291D-01-0.116D+01 0.209D+00 0.193D+01
 Coeff:      0.291D-01-0.116D+01 0.209D+00 0.193D+01
 Gap=     0.381 Goal=   None    Shift=    0.000
 Gap=     0.285 Goal=   None    Shift=    0.000
 RMSDP=5.07D-06 MaxDP=3.10D-04 DE=-2.91D-07 OVMax= 1.89D-03

 Cycle  15  Pass 1  IDiag  1:
 RMSU=  1.71D-06    CP:  1.00D+00  1.93D+00  3.00D+00  2.52D+00
 E= -305.913536386790     Delta-E=       -0.000000544136 Rises=F Damp=F
 DIIS: error= 6.08D-06 at cycle   5 NSaved=   5.
 NSaved= 5 IEnMin= 5 EnMin= -305.913536386790     IErMin= 5 ErrMin= 6.08D-06
 ErrMax= 6.08D-06  0.00D+00 EMaxC= 1.00D-01 BMatC= 4.60D-08 BMatP= 1.18D-07
 IDIUse=1 WtCom= 1.00D+00 WtEn= 0.00D+00
 Coeff-Com:  0.500D-01-0.856D+00-0.176D+00 0.118D+01 0.800D+00
 Coeff:      0.500D-01-0.856D+00-0.176D+00 0.118D+01 0.800D+00
 Gap=     0.381 Goal=   None    Shift=    0.000
 Gap=     0.285 Goal=   None    Shift=    0.000
 RMSDP=2.76D-06 MaxDP=1.78D-04 DE=-5.44D-07 OVMax= 1.04D-03

 Cycle  16  Pass 1  IDiag  1:
 RMSU=  7.37D-07    CP:  1.00D+00  2.18D+00  3.00D+00  3.00D+00  2.30D+00
 E= -305.913536508161     Delta-E=       -0.000000121371 Rises=F Damp=F
 DIIS: error= 3.59D-06 at cycle   6 NSaved=   6.
 NSaved= 6 IEnMin= 6 EnMin= -305.913536508161     IErMin= 6 ErrMin= 3.59D-06
 ErrMax= 3.59D-06  0.00D+00 EMaxC= 1.00D-01 BMatC= 1.28D-08 BMatP= 4.60D-08
 IDIUse=1 WtCom= 1.00D+00 WtEn= 0.00D+00
 Coeff-Com:  0.146D-01-0.688D-01-0.736D-01-0.605D-01 0.407D+00 0.782D+00
 Coeff:      0.146D-01-0.688D-01-0.736D-01-0.605D-01 0.407D+00 0.782D+00
 Gap=     0.381 Goal=   None    Shift=    0.000
 Gap=     0.285 Goal=   None    Shift=    0.000
 RMSDP=7.85D-07 MaxDP=4.84D-05 DE=-1.21D-07 OVMax= 2.98D-04

 Cycle  17  Pass 1  IDiag  1:
 RMSU=  2.18D-07    CP:  1.00D+00  2.24D+00  3.00D+00  3.00D+00  2.68D+00
                    CP:  1.20D+00
 E= -305.913536522192     Delta-E=       -0.000000014031 Rises=F Damp=F
 DIIS: error= 1.55D-06 at cycle   7 NSaved=   7.
 NSaved= 7 IEnMin= 7 EnMin= -305.913536522192     IErMin= 7 ErrMin= 1.55D-06
 ErrMax= 1.55D-06  0.00D+00 EMaxC= 1.00D-01 BMatC= 2.46D-09 BMatP= 1.28D-08
 IDIUse=1 WtCom= 1.00D+00 WtEn= 0.00D+00
 Coeff-Com: -0.149D-01 0.299D+00 0.867D-01-0.525D+00-0.105D+00 0.972D-01
 Coeff-Com:  0.116D+01
 Coeff:     -0.149D-01 0.299D+00 0.867D-01-0.525D+00-0.105D+00 0.972D-01
 Coeff:      0.116D+01
 Gap=     0.381 Goal=   None    Shift=    0.000
 Gap=     0.285 Goal=   None    Shift=    0.000
 RMSDP=4.13D-07 MaxDP=2.79D-05 DE=-1.40D-08 OVMax= 1.50D-04

 Cycle  18  Pass 1  IDiag  1:
 RMSU=  1.36D-07    CP:  1.00D+00  2.27D+00  3.00D+00  3.00D+00  2.87D+00
                    CP:  1.28D+00  1.60D+00
 E= -305.913536525983     Delta-E=       -0.000000003791 Rises=F Damp=F
 DIIS: error= 7.00D-07 at cycle   8 NSaved=   8.
 NSaved= 8 IEnMin= 8 EnMin= -305.913536525983     IErMin= 8 ErrMin= 7.00D-07
 ErrMax= 7.00D-07  0.00D+00 EMaxC= 1.00D-01 BMatC= 4.96D-10 BMatP= 2.46D-09
 IDIUse=1 WtCom= 1.00D+00 WtEn= 0.00D+00
 Coeff-Com: -0.316D-02 0.275D-01 0.342D-01-0.454D-01-0.479D-01-0.193D+00
 Coeff-Com:  0.884D-01 0.114D+01
 Coeff:     -0.316D-02 0.275D-01 0.342D-01-0.454D-01-0.479D-01-0.193D+00
 Coeff:      0.884D-01 0.114D+01
 Gap=     0.381 Goal=   None    Shift=    0.000
 Gap=     0.285 Goal=   None    Shift=    0.000
 RMSDP=1.45D-07 MaxDP=8.81D-06 DE=-3.79D-09 OVMax= 4.79D-05

 Cycle  19  Pass 1  IDiag  1:
 RMSU=  4.43D-08    CP:  1.00D+00  2.28D+00  3.00D+00  3.00D+00  2.92D+00
                    CP:  1.30D+00  1.91D+00  1.38D+00
 E= -305.913536526533     Delta-E=       -0.000000000551 Rises=F Damp=F
 DIIS: error= 3.21D-07 at cycle   9 NSaved=   9.
 NSaved= 9 IEnMin= 9 EnMin= -305.913536526533     IErMin= 9 ErrMin= 3.21D-07
 ErrMax= 3.21D-07  0.00D+00 EMaxC= 1.00D-01 BMatC= 1.10D-10 BMatP= 4.96D-10
 IDIUse=1 WtCom= 1.00D+00 WtEn= 0.00D+00
 Coeff-Com:  0.217D-02-0.600D-01-0.347D-02 0.101D+00 0.135D-01-0.112D+00
 Coeff-Com: -0.247D+00 0.476D+00 0.830D+00
 Coeff:      0.217D-02-0.600D-01-0.347D-02 0.101D+00 0.135D-01-0.112D+00
 Coeff:     -0.247D+00 0.476D+00 0.830D+00
 Gap=     0.381 Goal=   None    Shift=    0.000
 Gap=     0.285 Goal=   None    Shift=    0.000
 RMSDP=5.06D-08 MaxDP=3.09D-06 DE=-5.51D-10 OVMax= 1.47D-05

 Cycle  20  Pass 1  IDiag  1:
 RMSU=  1.75D-08    CP:  1.00D+00  2.28D+00  3.00D+00  3.00D+00  2.94D+00
                    CP:  1.31D+00  2.00D+00  1.57D+00  1.24D+00
 E= -305.913536526607     Delta-E=       -0.000000000073 Rises=F Damp=F
 DIIS: error= 5.19D-08 at cycle  10 NSaved=  10.
 NSaved=10 IEnMin=10 EnMin= -305.913536526607     IErMin=10 ErrMin= 5.19D-08
 ErrMax= 5.19D-08  0.00D+00 EMaxC= 1.00D-01 BMatC= 3.05D-12 BMatP= 1.10D-10
 IDIUse=1 WtCom= 1.00D+00 WtEn= 0.00D+00
 Coeff-Com:  0.262D-03-0.937D-03-0.195D-02-0.816D-05 0.520D-02 0.161D-01
 Coeff-Com:  0.153D-02-0.110D+00-0.291D-01 0.112D+01
 Coeff:      0.262D-03-0.937D-03-0.195D-02-0.816D-05 0.520D-02 0.161D-01
 Coeff:      0.153D-02-0.110D+00-0.291D-01 0.112D+01
 Gap=     0.381 Goal=   None    Shift=    0.000
 Gap=     0.285 Goal=   None    Shift=    0.000
 RMSDP=8.91D-09 MaxDP=4.03D-07 DE=-7.34D-11 OVMax= 1.93D-06

 SCF Done:  E(UM062X) =  -305.913536527     A.U. after   20 cycles
            NFock= 20  Conv=0.89D-08     -V/T= 2.0048
 <Sx>= 0.0000 <Sy>= 0.0000 <Sz>= 0.5000 <S**2>= 0.7557 S= 0.5028
 <L.S>= 0.000000000000E+00
 KE= 3.044648100294D+02 PE=-1.114658112515D+03 EE= 3.065407044751D+02
 Annihilation of the first spin contaminant:
 S**2 before annihilation     0.7557,   after     0.7500
 Leave Link  502 at Thu May 30 06:41:17 2019, MaxMem=   671088640 cpu:            1064.4 elap:              53.3
 (Enter /shared/centos7/gaussian/g16/l801.exe)
 DoSCS=F DFT=T ScalE2(SS,OS)=  1.000000  1.000000
 Range of M.O.s used for correlation:     1   248
 NBasis=   248 NAE=    22 NBE=    21 NFC=     0 NFV=     0
 NROrb=    248 NOA=    22 NOB=    21 NVA=   226 NVB=   227

 **** Warning!!: The largest alpha MO coefficient is  0.11470794D+02


 **** Warning!!: The largest beta MO coefficient is  0.11470420D+02

 Leave Link  801 at Thu May 30 06:41:17 2019, MaxMem=   671088640 cpu:               0.9 elap:               0.1
 (Enter /shared/centos7/gaussian/g16/l1101.exe)
 Using compressed storage, NAtomX=    12.
 Will process     13 centers per pass.
 Leave Link 1101 at Thu May 30 06:41:17 2019, MaxMem=   671088640 cpu:               6.0 elap:               0.3
 (Enter /shared/centos7/gaussian/g16/l1102.exe)
 Symmetrizing basis deriv contribution to polar:
 IMax=3 JMax=2 DiffMx= 0.00D+00
 Leave Link 1102 at Thu May 30 06:41:18 2019, MaxMem=   671088640 cpu:               1.2 elap:               0.1
 (Enter /shared/centos7/gaussian/g16/l1110.exe)
 Forming Gx(P) for the SCF density, NAtomX=    12.
 Integral derivatives from FoFJK, PRISM(SPDF).
 Do as many integral derivatives as possible in FoFJK.
 G2DrvN: MDV=     671087640.
 G2DrvN: will do    13 centers at a time, making    1 passes.
 Calling FoFCou, ICntrl=  3107 FMM=F I1Cent=   0 AccDes= 0.00D+00.
 FoFJK:  IHMeth= 1 ICntrl=    3107 DoSepK=F KAlg= 0 I1Cent=           0 FoldK=F
 IRaf=         0 NMat=       1 IRICut=       1 DoRegI=T DoRafI=F ISym2E= 0 IDoP0=0 IntGTp=1.
 FoFCou: FMM=F IPFlag=           0 FMFlag=      100000 FMFlg1=           0
         NFxFlg=           0 DoJE=F BraDBF=F KetDBF=F FulRan=T
         wScrn=  0.000000 ICntrl=      3107 IOpCl=  1 I1Cent=           0 NGrid=           0
         NMat0=    1 NMatS0=      1 NMatT0=    0 NMatD0=    1 NMtDS0=    0 NMtDT0=    0
 Symmetry not used in FoFCou.
 End of G2Drv F.D. properties file   721 does not exist.
 End of G2Drv F.D. properties file   722 does not exist.
 End of G2Drv F.D. properties file   788 does not exist.
 Leave Link 1110 at Thu May 30 06:42:43 2019, MaxMem=   671088640 cpu:            1703.2 elap:              85.2
 (Enter /shared/centos7/gaussian/g16/l1002.exe)
 Minotr:  UHF open shell wavefunction.
          IDoAtm=111111111111
          Direct CPHF calculation.
          Differentiating once with respect to nuclear coordinates.
          Requested convergence is 1.0D-08 RMS, and 1.0D-07 maximum.
          Secondary convergence is 1.0D-12 RMS, and 1.0D-12 maximum.
          NewPWx=T KeepS1=F KeepF1=F KeepIn=T MapXYZ=F SortEE=F KeepMc=T.
         3577 words used for storage of precomputed grid.
 Two-electron integrals replicated using symmetry.
          MDV=     671088640 using IRadAn=       1.
          Solving linear equations simultaneously, MaxMat=     380.
 FoF2E skips out because all densities are zero.
 CalDSu exits because no D1Ps are significant.
 FoFJK:  IHMeth= 1 ICntrl=       0 DoSepK=F KAlg= 0 I1Cent=           0 FoldK=F
 IRaf= 980000000 NMat=      36 IRICut=      90 DoRegI=T DoRafI=T ISym2E= 2 IDoP0=3 IntGTp=3.
 FoFCou: FMM=F IPFlag=           0 FMFlag=      100000 FMFlg1=           0
         NFxFlg=           0 DoJE=F BraDBF=F KetDBF=F FulRan=T
         wScrn=  0.000000 ICntrl=         0 IOpCl=  1 I1Cent=           0 NGrid=           0
         NMat0=   36 NMatS0=     36 NMatT0=    0 NMatD0=   36 NMtDS0=    0 NMtDT0=    0
 Integrals replicated using symmetry in FoFCou.
 Raff kept on since  97.12% of shell-pairs survive, threshold=   0.20 IRatSp=97.
          There are    39 degrees of freedom in the 1st order CPHF.  IDoFFX=6 NUNeed=     0.
     33 vectors produced by pass  0 Test12= 2.50D-14 2.56D-09 XBig12= 1.53D-01 9.97D-02.
 AX will form    33 AO Fock derivatives at one time.
     33 vectors produced by pass  1 Test12= 2.50D-14 2.56D-09 XBig12= 1.02D-02 3.17D-02.
     33 vectors produced by pass  2 Test12= 2.50D-14 2.56D-09 XBig12= 1.07D-03 1.29D-02.
     33 vectors produced by pass  3 Test12= 2.50D-14 2.56D-09 XBig12= 2.06D-05 7.39D-04.
     33 vectors produced by pass  4 Test12= 2.50D-14 2.56D-09 XBig12= 3.72D-07 8.35D-05.
     33 vectors produced by pass  5 Test12= 2.50D-14 2.56D-09 XBig12= 6.82D-09 9.57D-06.
     33 vectors produced by pass  6 Test12= 2.50D-14 2.56D-09 XBig12= 6.52D-11 1.05D-06.
     16 vectors produced by pass  7 Test12= 2.50D-14 2.56D-09 XBig12= 4.89D-13 7.88D-08.
      1 vectors produced by pass  8 Test12= 2.50D-14 2.56D-09 XBig12= 3.27D-15 7.89D-09.
 InvSVY:  IOpt=1 It=  1 EMax= 1.89D-15
 Solved reduced A of dimension   248 with    33 vectors.
 End of Minotr F.D. properties file   721 does not exist.
 End of Minotr F.D. properties file   722 does not exist.
 End of Minotr F.D. properties file   788 does not exist.
 Leave Link 1002 at Thu May 30 06:45:25 2019, MaxMem=   671088640 cpu:            3249.1 elap:             162.5
 (Enter /shared/centos7/gaussian/g16/l601.exe)
 Copying SCF densities to generalized density rwf, IOpCl= 1 IROHF=0.

 **********************************************************************

            Population analysis using the SCF density.

 **********************************************************************

 Orbital symmetries:
 Alpha Orbitals:
       Occupied  (A) (A) (A) (A) (A) (A) (A) (A) (A) (A) (A) (A)
                 (A) (A) (A) (A) (A) (A) (A) (A) (A) (A)
       Virtual   (A) (A) (A) (A) (A) (A) (A) (A) (A) (A) (A) (A)
                 (A) (A) (A) (A) (A) (A) (A) (A) (A) (A) (A) (A)
                 (A) (A) (A) (A) (A) (A) (A) (A) (A) (A) (A) (A)
                 (A) (A) (A) (A) (A) (A) (A) (A) (A) (A) (A) (A)
                 (A) (A) (A) (A) (A) (A) (A) (A) (A) (A) (A) (A)
                 (A) (A) (A) (A) (A) (A) (A) (A) (A) (A) (A) (A)
                 (A) (A) (A) (A) (A) (A) (A) (A) (A) (A) (A) (A)
                 (A) (A) (A) (A) (A) (A) (A) (A) (A) (A) (A) (A)
                 (A) (A) (A) (A) (A) (A) (A) (A) (A) (A) (A) (A)
                 (A) (A) (A) (A) (A) (A) (A) (A) (A) (A) (A) (A)
                 (A) (A) (A) (A) (A) (A) (A) (A) (A) (A) (A) (A)
                 (A) (A) (A) (A) (A) (A) (A) (A) (A) (A) (A) (A)
                 (A) (A) (A) (A) (A) (A) (A) (A) (A) (A) (A) (A)
                 (A) (A) (A) (A) (A) (A) (A) (A) (A) (A) (A) (A)
                 (A) (A) (A) (A) (A) (A) (A) (A) (A) (A) (A) (A)
                 (A) (A) (A) (A) (A) (A) (A) (A) (A) (A) (A) (A)
                 (A) (A) (A) (A) (A) (A) (A) (A) (A) (A) (A) (A)
                 (A) (A) (A) (A) (A) (A) (A) (A) (A) (A) (A) (A)
                 (A) (A) (A) (A) (A) (A) (A) (A) (A) (A)
 Beta  Orbitals:
       Occupied  (A) (A) (A) (A) (A) (A) (A) (A) (A) (A) (A) (A)
                 (A) (A) (A) (A) (A) (A) (A) (A) (A)
       Virtual   (A) (A) (A) (A) (A) (A) (A) (A) (A) (A) (A) (A)
                 (A) (A) (A) (A) (A) (A) (A) (A) (A) (A) (A) (A)
                 (A) (A) (A) (A) (A) (A) (A) (A) (A) (A) (A) (A)
                 (A) (A) (A) (A) (A) (A) (A) (A) (A) (A) (A) (A)
                 (A) (A) (A) (A) (A) (A) (A) (A) (A) (A) (A) (A)
                 (A) (A) (A) (A) (A) (A) (A) (A) (A) (A) (A) (A)
                 (A) (A) (A) (A) (A) (A) (A) (A) (A) (A) (A) (A)
                 (A) (A) (A) (A) (A) (A) (A) (A) (A) (A) (A) (A)
                 (A) (A) (A) (A) (A) (A) (A) (A) (A) (A) (A) (A)
                 (A) (A) (A) (A) (A) (A) (A) (A) (A) (A) (A) (A)
                 (A) (A) (A) (A) (A) (A) (A) (A) (A) (A) (A) (A)
                 (A) (A) (A) (A) (A) (A) (A) (A) (A) (A) (A) (A)
                 (A) (A) (A) (A) (A) (A) (A) (A) (A) (A) (A) (A)
                 (A) (A) (A) (A) (A) (A) (A) (A) (A) (A) (A) (A)
                 (A) (A) (A) (A) (A) (A) (A) (A) (A) (A) (A) (A)
                 (A) (A) (A) (A) (A) (A) (A) (A) (A) (A) (A) (A)
                 (A) (A) (A) (A) (A) (A) (A) (A) (A) (A) (A) (A)
                 (A) (A) (A) (A) (A) (A) (A) (A) (A) (A) (A) (A)
                 (A) (A) (A) (A) (A) (A) (A) (A) (A) (A) (A)
 The electronic state is 2-A.
 Alpha  occ. eigenvalues --  -19.71497 -19.70286 -19.64475 -10.59600 -10.53169
 Alpha  occ. eigenvalues --   -1.31644  -1.16553  -0.98648  -0.85773  -0.72893
 Alpha  occ. eigenvalues --   -0.65644  -0.60439  -0.57396  -0.56019  -0.54291
 Alpha  occ. eigenvalues --   -0.52077  -0.45378  -0.44618  -0.41738  -0.38142
 Alpha  occ. eigenvalues --   -0.37467  -0.32696
 Alpha virt. eigenvalues --    0.05448   0.09241   0.09610   0.12256   0.14381
 Alpha virt. eigenvalues --    0.15270   0.17917   0.19553   0.22358   0.26050
 Alpha virt. eigenvalues --    0.28157   0.29884   0.35816   0.36421   0.38196
 Alpha virt. eigenvalues --    0.40596   0.44650   0.45699   0.46494   0.47809
 Alpha virt. eigenvalues --    0.49374   0.50986   0.52072   0.53337   0.57162
 Alpha virt. eigenvalues --    0.57804   0.59404   0.61489   0.62521   0.65496
 Alpha virt. eigenvalues --    0.69087   0.72766   0.72816   0.78173   0.78793
 Alpha virt. eigenvalues --    0.80856   0.83786   0.85913   0.88966   0.91782
 Alpha virt. eigenvalues --    0.95832   0.96361   1.00613   1.01953   1.05138
 Alpha virt. eigenvalues --    1.09213   1.10708   1.13123   1.14280   1.16578
 Alpha virt. eigenvalues --    1.17662   1.19265   1.21361   1.23182   1.24893
 Alpha virt. eigenvalues --    1.31389   1.31895   1.34321   1.35578   1.37755
 Alpha virt. eigenvalues --    1.41989   1.42283   1.45586   1.49768   1.52319
 Alpha virt. eigenvalues --    1.57466   1.58261   1.63385   1.69865   1.71968
 Alpha virt. eigenvalues --    1.74667   1.86462   1.93288   1.95938   2.00281
 Alpha virt. eigenvalues --    2.02406   2.08851   2.09998   2.10134   2.16860
 Alpha virt. eigenvalues --    2.24547   2.26687   2.30090   2.31576   2.36339
 Alpha virt. eigenvalues --    2.39043   2.42067   2.51338   2.52144   2.54630
 Alpha virt. eigenvalues --    2.58913   2.63772   2.65455   2.73261   2.75287
 Alpha virt. eigenvalues --    2.83307   2.84486   2.87925   2.92104   2.94341
 Alpha virt. eigenvalues --    2.95568   2.97125   3.00239   3.03849   3.05433
 Alpha virt. eigenvalues --    3.09086   3.11642   3.12858   3.14323   3.17118
 Alpha virt. eigenvalues --    3.20974   3.25796   3.27564   3.29338   3.30433
 Alpha virt. eigenvalues --    3.32727   3.36672   3.40803   3.41885   3.45040
 Alpha virt. eigenvalues --    3.47117   3.48102   3.51222   3.52947   3.58795
 Alpha virt. eigenvalues --    3.59815   3.63867   3.67429   3.70194   3.73246
 Alpha virt. eigenvalues --    3.73961   3.76297   3.77251   3.78987   3.80927
 Alpha virt. eigenvalues --    3.84362   3.85664   3.87780   3.88642   3.89482
 Alpha virt. eigenvalues --    3.91731   3.95497   3.97500   3.99067   4.01330
 Alpha virt. eigenvalues --    4.04149   4.05691   4.07085   4.12528   4.14904
 Alpha virt. eigenvalues --    4.17396   4.18740   4.20732   4.25320   4.26542
 Alpha virt. eigenvalues --    4.28079   4.32654   4.36069   4.38309   4.43628
 Alpha virt. eigenvalues --    4.54182   4.59114   4.60647   4.62644   4.70749
 Alpha virt. eigenvalues --    4.72825   4.76218   4.78623   4.80786   4.84002
 Alpha virt. eigenvalues --    4.86672   4.91194   4.93646   4.94781   4.97371
 Alpha virt. eigenvalues --    5.02722   5.08165   5.10081   5.11380   5.15146
 Alpha virt. eigenvalues --    5.16934   5.25332   5.32851   5.36304   5.38887
 Alpha virt. eigenvalues --    5.43463   5.50959   5.53767   5.55689   5.66343
 Alpha virt. eigenvalues --    5.72522   5.74875   5.83120   5.88210   5.95010
 Alpha virt. eigenvalues --    6.02740   6.17984   6.20444   6.27717   6.31608
 Alpha virt. eigenvalues --    6.33512   6.41114   6.43850   6.45141   6.50049
 Alpha virt. eigenvalues --    6.56929   6.60927   6.63735   6.66935   6.71573
 Alpha virt. eigenvalues --    6.79575   6.83130   6.86897   6.89458   7.06396
 Alpha virt. eigenvalues --    7.15017   7.19447   7.29556   7.31474   7.39737
 Alpha virt. eigenvalues --    7.59767   9.72352  11.67934  12.04354  12.36445
 Alpha virt. eigenvalues --   13.28090
  Beta  occ. eigenvalues --  -19.70937 -19.68865 -19.64475 -10.59608 -10.52944
  Beta  occ. eigenvalues --   -1.28722  -1.16527  -0.94595  -0.85164  -0.72248
  Beta  occ. eigenvalues --   -0.63846  -0.58278  -0.54949  -0.54218  -0.53284
  Beta  occ. eigenvalues --   -0.49267  -0.44790  -0.42620  -0.39939  -0.36428
  Beta  occ. eigenvalues --   -0.35294
  Beta virt. eigenvalues --   -0.06792   0.05508   0.09239   0.09861   0.12237
  Beta virt. eigenvalues --    0.14533   0.15558   0.18508   0.19755   0.23015
  Beta virt. eigenvalues --    0.26432   0.28471   0.30176   0.35890   0.36541
  Beta virt. eigenvalues --    0.38441   0.40833   0.44737   0.45773   0.46629
  Beta virt. eigenvalues --    0.48077   0.49689   0.51259   0.52483   0.54323
  Beta virt. eigenvalues --    0.57637   0.58056   0.59638   0.61703   0.62936
  Beta virt. eigenvalues --    0.65881   0.69210   0.73235   0.73580   0.78227
  Beta virt. eigenvalues --    0.79463   0.81226   0.83878   0.86184   0.89281
  Beta virt. eigenvalues --    0.91873   0.96130   0.96423   1.00879   1.02059
  Beta virt. eigenvalues --    1.05370   1.09430   1.10745   1.13326   1.14455
  Beta virt. eigenvalues --    1.16804   1.18076   1.19334   1.21644   1.23493
  Beta virt. eigenvalues --    1.24973   1.31518   1.32150   1.34661   1.35874
  Beta virt. eigenvalues --    1.38297   1.42138   1.42593   1.46242   1.50143
  Beta virt. eigenvalues --    1.52593   1.57748   1.58575   1.63938   1.70303
  Beta virt. eigenvalues --    1.72968   1.75151   1.87200   1.93470   1.96181
  Beta virt. eigenvalues --    2.00705   2.03252   2.09041   2.10272   2.10918
  Beta virt. eigenvalues --    2.17443   2.24917   2.27442   2.30378   2.31837
  Beta virt. eigenvalues --    2.36723   2.39246   2.42643   2.51660   2.52337
  Beta virt. eigenvalues --    2.54809   2.59210   2.64017   2.65794   2.73542
  Beta virt. eigenvalues --    2.75359   2.83671   2.84762   2.88214   2.92510
  Beta virt. eigenvalues --    2.94780   2.95751   2.97239   3.00340   3.04674
  Beta virt. eigenvalues --    3.05703   3.09460   3.11751   3.13097   3.14850
  Beta virt. eigenvalues --    3.17454   3.21489   3.26074   3.27950   3.29426
  Beta virt. eigenvalues --    3.30574   3.33231   3.36707   3.40759   3.42021
  Beta virt. eigenvalues --    3.45248   3.47484   3.48226   3.51209   3.53064
  Beta virt. eigenvalues --    3.58742   3.60225   3.64197   3.68098   3.70535
  Beta virt. eigenvalues --    3.73408   3.74253   3.76620   3.77356   3.79121
  Beta virt. eigenvalues --    3.81636   3.84691   3.85643   3.87924   3.88712
  Beta virt. eigenvalues --    3.89734   3.91569   3.95801   3.97896   3.99237
  Beta virt. eigenvalues --    4.01481   4.04226   4.05705   4.07135   4.12735
  Beta virt. eigenvalues --    4.15071   4.17402   4.19412   4.21051   4.25233
  Beta virt. eigenvalues --    4.26606   4.28114   4.32908   4.36227   4.38427
  Beta virt. eigenvalues --    4.44112   4.54984   4.59617   4.60725   4.62906
  Beta virt. eigenvalues --    4.70882   4.73074   4.76494   4.78971   4.80973
  Beta virt. eigenvalues --    4.84326   4.87136   4.91601   4.94148   4.95823
  Beta virt. eigenvalues --    4.98132   5.03087   5.09000   5.10637   5.11904
  Beta virt. eigenvalues --    5.15552   5.17595   5.25515   5.33146   5.36750
  Beta virt. eigenvalues --    5.39042   5.44025   5.52379   5.54062   5.56351
  Beta virt. eigenvalues --    5.67154   5.72872   5.75803   5.83433   5.89092
  Beta virt. eigenvalues --    5.95194   6.03763   6.18231   6.21849   6.30187
  Beta virt. eigenvalues --    6.33254   6.37038   6.42548   6.46834   6.48596
  Beta virt. eigenvalues --    6.52866   6.59675   6.63247   6.65565   6.66977
  Beta virt. eigenvalues --    6.71789   6.80277   6.83774   6.86970   6.92108
  Beta virt. eigenvalues --    7.06655   7.15202   7.19569   7.30844   7.34801
  Beta virt. eigenvalues --    7.39842   7.61064   9.73861  11.68332  12.04394
  Beta virt. eigenvalues --   12.36478  13.28269
          Condensed to atoms (all electrons):
               1          2          3          4          5          6
     1  O    7.973461  -0.031305   0.001748   0.247733  -0.045295  -0.032784
     2  O   -0.031305   7.829504   0.064053   0.016475  -0.003835   0.000311
     3  O    0.001748   0.064053   8.136137  -0.007740  -0.081720  -0.000167
     4  C    0.247733   0.016475  -0.007740   4.824005   0.310500   0.418949
     5  C   -0.045295  -0.003835  -0.081720   0.310500   5.192683  -0.046231
     6  H   -0.032784   0.000311  -0.000167   0.418949  -0.046231   0.600130
     7  H   -0.039800   0.006182  -0.000522   0.404206  -0.051824  -0.046751
     8  H   -0.004571   0.000686  -0.000096  -0.037196   0.381708  -0.008290
     9  H    0.006110  -0.000059   0.002613  -0.036406   0.367477  -0.000891
    10  H    0.303575   0.000973   0.001866  -0.033094  -0.006612  -0.006477
    11  H    0.051331   0.303097  -0.035904  -0.003378  -0.004691   0.001302
    12  H    0.002028  -0.017566   0.062510  -0.018126   0.367656   0.004297
               7          8          9         10         11         12
     1  O   -0.039800  -0.004571   0.006110   0.303575   0.051331   0.002028
     2  O    0.006182   0.000686  -0.000059   0.000973   0.303097  -0.017566
     3  O   -0.000522  -0.000096   0.002613   0.001866  -0.035904   0.062510
     4  C    0.404206  -0.037196  -0.036406  -0.033094  -0.003378  -0.018126
     5  C   -0.051824   0.381708   0.367477  -0.006612  -0.004691   0.367656
     6  H   -0.046751  -0.008290  -0.000891  -0.006477   0.001302   0.004297
     7  H    0.588244   0.008524  -0.002989   0.010160  -0.007091  -0.005424
     8  H    0.008524   0.600698  -0.033055   0.006631  -0.000478  -0.022920
     9  H   -0.002989  -0.033055   0.605012  -0.000033  -0.000063  -0.017351
    10  H    0.010160   0.006631  -0.000033   0.458030  -0.004933  -0.001049
    11  H   -0.007091  -0.000478  -0.000063  -0.004933   0.413308   0.005238
    12  H   -0.005424  -0.022920  -0.017351  -0.001049   0.005238   0.456341
          Atomic-Atomic Spin Densities.
               1          2          3          4          5          6
     1  O    0.000362  -0.000774   0.001255   0.001666  -0.001780  -0.002098
     2  O   -0.000774   0.290261  -0.110446  -0.001181   0.013118   0.000496
     3  O    0.001255  -0.110446   0.825314  -0.001279  -0.057025  -0.000934
     4  C    0.001666  -0.001181  -0.001279  -0.017589   0.003362   0.002795
     5  C   -0.001780   0.013118  -0.057025   0.003362   0.208541  -0.007507
     6  H   -0.002098   0.000496  -0.000934   0.002795  -0.007507   0.023069
     7  H    0.000975  -0.001514   0.000348   0.000710   0.000020  -0.001409
     8  H    0.000637  -0.000521   0.002973  -0.001031   0.000096  -0.001276
     9  H    0.000027  -0.000485   0.002164   0.001479   0.000974  -0.001681
    10  H    0.000318   0.000058  -0.000402  -0.000054  -0.000029   0.000033
    11  H    0.000333   0.001413  -0.000186   0.000199   0.000097   0.000051
    12  H   -0.000701   0.007980  -0.026717   0.002888   0.032032   0.000867
               7          8          9         10         11         12
     1  O    0.000975   0.000637   0.000027   0.000318   0.000333  -0.000701
     2  O   -0.001514  -0.000521  -0.000485   0.000058   0.001413   0.007980
     3  O    0.000348   0.002973   0.002164  -0.000402  -0.000186  -0.026717
     4  C    0.000710  -0.001031   0.001479  -0.000054   0.000199   0.002888
     5  C    0.000020   0.000096   0.000974  -0.000029   0.000097   0.032032
     6  H   -0.001409  -0.001276  -0.001681   0.000033   0.000051   0.000867
     7  H    0.002546  -0.000203   0.000116  -0.000063  -0.000022   0.000523
     8  H   -0.000203  -0.008297   0.002657  -0.000113   0.000072  -0.001133
     9  H    0.000116   0.002657  -0.009153  -0.000031   0.000022  -0.000624
    10  H   -0.000063  -0.000113  -0.000031  -0.000101   0.000066   0.000222
    11  H   -0.000022   0.000072   0.000022   0.000066  -0.008970  -0.000904
    12  H    0.000523  -0.001133  -0.000624   0.000222  -0.000904  -0.027821
 Mulliken charges and spin densities:
               1          2
     1  O   -0.432230   0.000221
     2  O   -0.168517   0.198405
     3  O   -0.142779   0.635064
     4  C   -0.085928  -0.008034
     5  C   -0.379815   0.191899
     6  H    0.116601   0.012406
     7  H    0.137085   0.002029
     8  H    0.108358  -0.006140
     9  H    0.109635  -0.004535
    10  H    0.270963  -0.000095
    11  H    0.282261  -0.007829
    12  H    0.184366  -0.013389
 Sum of Mulliken charges =  -0.00000   1.00000
 Mulliken charges and spin densities with hydrogens summed into heavy atoms:
               1          2
     1  O   -0.161267   0.000126
     2  O    0.113744   0.190575
     3  O   -0.142779   0.635064
     4  C    0.167758   0.006400
     5  C    0.022545   0.167834
 APT charges:
               1
     1  O   -0.534952
     2  O   -0.184618
     3  O   -0.118604
     4  C   -0.683641
     5  C   -0.839145
     6  H    0.442652
     7  H    0.303620
     8  H    0.329560
     9  H    0.388910
    10  H    0.449163
    11  H    0.303152
    12  H    0.143904
 Sum of APT charges =  -0.00000
 APT charges with hydrogens summed into heavy atoms:
               1
     1  O   -0.085789
     2  O    0.118534
     3  O   -0.118604
     4  C    0.062631
     5  C    0.023228
 Electronic spatial extent (au):  <R**2>=            478.8064
 Charge=             -0.0000 electrons
 Dipole moment (field-independent basis, Debye):
    X=             -2.2828    Y=             -0.1358    Z=             -0.6821  Tot=              2.3864
 Quadrupole moment (field-independent basis, Debye-Ang):
   XX=            -33.2971   YY=            -32.0164   ZZ=            -28.7645
   XY=             -2.4007   XZ=              0.3467   YZ=              0.9924
 Traceless Quadrupole moment (field-independent basis, Debye-Ang):
   XX=             -1.9378   YY=             -0.6570   ZZ=              2.5948
   XY=             -2.4007   XZ=              0.3467   YZ=              0.9924
 Octapole moment (field-independent basis, Debye-Ang**2):
  XXX=             -0.4809  YYY=             -3.6526  ZZZ=             -5.8511  XYY=              6.1428
  XXY=             -2.8385  XXZ=             -2.6448  XZZ=             -1.7747  YZZ=             -4.2388
  YYZ=             -0.2071  XYZ=             -0.4398
 Hexadecapole moment (field-independent basis, Debye-Ang**3):
 XXXX=           -330.2640 YYYY=           -187.1277 ZZZZ=            -65.4546 XXXY=              3.7016
 XXXZ=             -0.2376 YYYX=             -5.0666 YYYZ=              1.6293 ZZZX=              6.7606
 ZZZY=              4.4221 XXYY=            -87.3585 XXZZ=            -64.8297 YYZZ=            -38.8180
 XXYZ=              3.0660 YYXZ=              0.6336 ZZXY=              3.2834
 N-N= 1.977390614838D+02 E-N=-1.114658111643D+03  KE= 3.044648100294D+02
  Exact polarizability:   0.000   0.000   0.000   0.000   0.000   0.000
 Approx polarizability:  54.190  -6.600  51.959   0.555  -3.922  47.298
                          Isotropic Fermi Contact Couplings
        Atom                 a.u.       MegaHertz       Gauss      10(-4) cm-1
     1  O(17)              0.00117      -0.70946      -0.25315      -0.23665
     2  O(17)              0.03042     -18.44347      -6.58109      -6.15208
     3  O(17)              0.15344     -93.01632     -33.19053     -31.02690
     4  C(13)             -0.00537      -6.03948      -2.15504      -2.01455
     5  C(13)              0.09697     109.01294      38.89853      36.36280
     6  H(1)               0.00569      25.43615       9.07625       8.48458
     7  H(1)               0.00213       9.51249       3.39429       3.17303
     8  H(1)              -0.00140      -6.24665      -2.22896      -2.08366
     9  H(1)               0.00021       0.96004       0.34257       0.32024
    10  H(1)              -0.00005      -0.22473      -0.08019      -0.07496
    11  H(1)              -0.00389     -17.38435      -6.20317      -5.79880
    12  H(1)              -0.01483     -66.28964     -23.65379     -22.11184
 --------------------------------------------------------
       Center         ----  Spin Dipole Couplings  ----
                      3XX-RR        3YY-RR        3ZZ-RR
 --------------------------------------------------------
     1   Atom        0.000560      0.002921     -0.003481
     2   Atom        0.536566     -0.300547     -0.236019
     3   Atom        1.671569     -1.094937     -0.576632
     4   Atom        0.010234     -0.004141     -0.006092
     5   Atom        0.247634     -0.123253     -0.124381
     6   Atom        0.005304     -0.001499     -0.003806
     7   Atom        0.002375     -0.002627      0.000252
     8   Atom        0.004928     -0.015376      0.010447
     9   Atom        0.001970      0.002164     -0.004134
    10   Atom        0.002626     -0.000147     -0.002479
    11   Atom       -0.002495      0.027208     -0.024712
    12   Atom        0.119628     -0.040167     -0.079460
 --------------------------------------------------------
                        XY            XZ            YZ
 --------------------------------------------------------
     1   Atom        0.003508     -0.001067      0.004491
     2   Atom       -0.518561     -0.631917      0.355007
     3   Atom       -1.114394     -1.671617      0.601001
     4   Atom        0.006648      0.003111      0.001435
     5   Atom       -0.011436     -0.003344      0.000042
     6   Atom        0.002255     -0.002246     -0.000673
     7   Atom        0.001784     -0.005169     -0.004945
     8   Atom       -0.005475      0.009845     -0.006044
     9   Atom       -0.008705     -0.006052      0.015408
    10   Atom        0.004430      0.003528      0.003496
    11   Atom        0.030889      0.006406      0.016106
    12   Atom       -0.080819     -0.034661      0.015907
 --------------------------------------------------------


 ---------------------------------------------------------------------------------
              Anisotropic Spin Dipole Couplings in Principal Axis System
 ---------------------------------------------------------------------------------

       Atom             a.u.   MegaHertz   Gauss  10(-4) cm-1        Axes

              Baa    -0.0068     0.489     0.175     0.163  0.3531 -0.4958  0.7934
     1 O(17)  Bbb     0.0003    -0.018    -0.007    -0.006  0.8285 -0.2283 -0.5114
              Bcc     0.0065    -0.471    -0.168    -0.157  0.4347  0.8379  0.3302
 
              Baa    -0.6324    45.760    16.328    15.264  0.1710 -0.5828  0.7945
     2 O(17)  Bbb    -0.5272    38.146    13.611    12.724  0.5816  0.7105  0.3960
              Bcc     1.1596   -83.906   -29.940   -27.988  0.7953 -0.3944 -0.4604
 
              Baa    -1.4921   107.966    38.525    36.014  0.1412  0.9260 -0.3501
     3 O(17)  Bbb    -1.4654   106.034    37.836    35.369  0.5203  0.2315  0.8220
              Bcc     2.9575  -214.000   -76.361   -71.383  0.8422 -0.2982 -0.4491
 
              Baa    -0.0069    -0.928    -0.331    -0.310 -0.1697  0.7416 -0.6490
     4 C(13)  Bbb    -0.0065    -0.875    -0.312    -0.292 -0.3621  0.5655  0.7410
              Bcc     0.0134     1.803     0.643     0.601  0.9166  0.3607  0.1725
 
              Baa    -0.1244   -16.695    -5.957    -5.569  0.0113  0.0746  0.9972
     5 C(13)  Bbb    -0.1236   -16.586    -5.918    -5.533  0.0300  0.9967 -0.0749
              Bcc     0.2480    33.281    11.876    11.102  0.9995 -0.0308 -0.0090
 
              Baa    -0.0043    -2.315    -0.826    -0.772  0.2126  0.0623  0.9752
     6 H(1)   Bbb    -0.0022    -1.162    -0.415    -0.388 -0.2881  0.9576  0.0016
              Bcc     0.0065     3.477     1.241     1.160  0.9337  0.2812 -0.2215
 
              Baa    -0.0068    -3.608    -1.288    -1.204  0.2440  0.6988  0.6724
     7 H(1)   Bbb    -0.0018    -0.935    -0.334    -0.312  0.7138 -0.5988  0.3633
              Bcc     0.0085     4.544     1.621     1.516  0.6565  0.3913 -0.6449
 
              Baa    -0.0173    -9.223    -3.291    -3.076  0.1731  0.9733  0.1507
     8 H(1)   Bbb    -0.0025    -1.336    -0.477    -0.446  0.7853 -0.0441 -0.6175
              Bcc     0.0198    10.559     3.768     3.522  0.5944 -0.2252  0.7720
 
              Baa    -0.0168    -8.940    -3.190    -2.982 -0.0537 -0.6453  0.7620
     9 H(1)   Bbb    -0.0040    -2.110    -0.753    -0.704  0.8692  0.3455  0.3538
              Bcc     0.0207    11.050     3.943     3.686 -0.4916  0.6813  0.5423
 
              Baa    -0.0050    -2.679    -0.956    -0.894 -0.0817 -0.5308  0.8435
    10 H(1)   Bbb    -0.0031    -1.675    -0.598    -0.559  0.6943 -0.6376 -0.3339
              Bcc     0.0082     4.354     1.554     1.452  0.7151  0.5583  0.4206
 
              Baa    -0.0298   -15.888    -5.669    -5.300  0.2005 -0.3656  0.9089
    11 H(1)   Bbb    -0.0207   -11.056    -3.945    -3.688  0.8359 -0.4200 -0.3533
              Bcc     0.0505    26.944     9.614     8.988  0.5109  0.8306  0.2214
 
              Baa    -0.0857   -45.718   -16.313   -15.250  0.1019 -0.1621  0.9815
    12 H(1)   Bbb    -0.0738   -39.361   -14.045   -13.129  0.3998  0.9101  0.1088
              Bcc     0.1595    85.078    30.358    28.379  0.9109 -0.3813 -0.1575
 

 ---------------------------------------------------------------------------------

 No NMR shielding tensors so no spin-rotation constants.
 Leave Link  601 at Thu May 30 07:44:45 2019, MaxMem=   671088640 cpu:              10.3 elap:               0.6
 (Enter /shared/centos7/gaussian/g16/l701.exe)
 ... and contract with generalized density number  0.
 Compute integral second derivatives.
 Leave Link  701 at Thu May 30 07:44:45 2019, MaxMem=   671088640 cpu:               6.5 elap:               0.3
 (Enter /shared/centos7/gaussian/g16/l702.exe)
 L702 exits ... SP integral derivatives will be done elsewhere.
 Leave Link  702 at Thu May 30 07:44:45 2019, MaxMem=   671088640 cpu:               0.3 elap:               0.0
 (Enter /shared/centos7/gaussian/g16/l703.exe)
 Integral derivatives from FoFJK, PRISM(SPDF).
 Compute integral second derivatives, UseDBF=F ICtDFT=           0.
 Calling FoFJK, ICntrl=    100147 FMM=F ISym2X=0 I1Cent= 0 IOpClX= 1 NMat=1 NMatS=1 NMatT=0.
 FoFJK:  IHMeth= 1 ICntrl=  100147 DoSepK=F KAlg= 0 I1Cent=           0 FoldK=F
 IRaf=         0 NMat=       1 IRICut=       1 DoRegI=T DoRafI=F ISym2E= 0 IDoP0=0 IntGTp=1.
 FoFCou: FMM=F IPFlag=           0 FMFlag=      100000 FMFlg1=         800
         NFxFlg=           0 DoJE=F BraDBF=F KetDBF=F FulRan=T
         wScrn=  0.000000 ICntrl=    100147 IOpCl=  1 I1Cent=           0 NGrid=           0
         NMat0=    1 NMatS0=      1 NMatT0=    0 NMatD0=    1 NMtDS0=    0 NMtDT0=    0
 Symmetry not used in FoFCou.
 Leave Link  703 at Thu May 30 07:46:17 2019, MaxMem=   671088640 cpu:            1827.8 elap:              91.4
 (Enter /shared/centos7/gaussian/g16/l716.exe)
 Dipole        =-8.98133477D-01-5.34177472D-02-2.68374184D-01
 Polarizability= 0.00000000D+00 0.00000000D+00 0.00000000D+00
                 0.00000000D+00 0.00000000D+00 0.00000000D+00
 ***** Axes restored to original set *****
 -------------------------------------------------------------------
 Center     Atomic                   Forces (Hartrees/Bohr)
 Number     Number              X              Y              Z
 -------------------------------------------------------------------
      1        8           0.000126677    0.000008883   -0.000477572
      2        8           0.000276489   -0.000036053    0.000538971
      3        8           0.040850219   -0.019277911   -0.009983370
      4        6           0.000324007    0.000393154   -0.000310520
      5        6          -0.001379799    0.005595305    0.002683827
      6        1           0.000012264   -0.000036433    0.000154278
      7        1          -0.000138230   -0.000225758    0.000213054
      8        1           0.000104998    0.000146435   -0.000227639
      9        1          -0.000090774   -0.000009760    0.000200972
     10        1           0.000112884   -0.000108691    0.000523381
     11        1          -0.000426977   -0.000150496   -0.000232179
     12        1          -0.039771758    0.013701325    0.006916796
 -------------------------------------------------------------------
 Cartesian Forces:  Max     0.040850219 RMS     0.010540426
 Force constants in Cartesian coordinates: 
                1             2             3             4             5 
      1  0.127730D+00
      2 -0.104031D+00  0.275634D+00
      3  0.431076D-01 -0.195562D-01  0.645981D+00
      4 -0.183431D-01 -0.934191D-03 -0.800199D-02  0.244808D+00
      5 -0.138451D-01  0.493811D-02 -0.171965D-03  0.160817D+00  0.453024D+00
      6 -0.331868D-02 -0.228912D-02 -0.131920D-02  0.166978D+00 -0.642316D-01
      7 -0.486465D-02 -0.390035D-03  0.203118D-02 -0.385466D-01  0.489566D-02
      8  0.705978D-02 -0.423332D-02  0.469593D-03  0.273752D-02 -0.221527D+00
      9 -0.704561D-02  0.133609D-02  0.215866D-02 -0.208539D-01  0.188791D+00
     10 -0.874618D-01  0.474023D-01  0.330027D-01  0.995279D-03  0.648634D-02
     11  0.463342D-01 -0.154323D+00 -0.769985D-01 -0.316659D-02 -0.865816D-02
     12  0.147184D-01 -0.327358D-01 -0.138344D+00 -0.159478D-02 -0.320924D-02
     13  0.283860D-02  0.182337D-01 -0.210050D-02 -0.298832D-02 -0.191210D-01
     14 -0.334322D-02 -0.375075D-01 -0.687722D-03 -0.170799D-02 -0.702813D-02
     15 -0.265732D-02 -0.327489D-01  0.112969D-02 -0.343783D-02 -0.184225D-02
     16 -0.813113D-02  0.977806D-02  0.834485D-02 -0.528990D-03 -0.491131D-03
     17  0.338564D-01 -0.959223D-02 -0.102887D-01  0.104495D-02  0.339933D-02
     18  0.269789D-01 -0.107656D-01 -0.518859D-02  0.976517D-04 -0.955782D-04
     19  0.589269D-02 -0.117574D-02  0.161240D-01 -0.486393D-03  0.394946D-03
     20 -0.617400D-02  0.833802D-03 -0.339111D-01  0.476630D-03  0.672200D-03
     21 -0.263994D-02 -0.320620D-02 -0.263203D-01 -0.636699D-03 -0.607787D-03
     22  0.317367D-03  0.690375D-03  0.132141D-03 -0.538550D-03  0.436363D-02
     23 -0.235672D-03  0.359442D-02  0.156490D-03  0.140393D-03 -0.374374D-05
     24  0.820761D-04  0.590508D-04  0.348189D-02  0.488142D-03 -0.401357D-03
     25  0.167939D-02 -0.416125D-02  0.522747D-03  0.123430D-02  0.560699D-02
     26 -0.145580D-02 -0.844676D-02  0.802930D-03  0.550990D-03  0.101897D-02
     27  0.319201D-03  0.356406D-02  0.152554D-02  0.842720D-05  0.793733D-03
     28 -0.303718D-01  0.389796D-01 -0.932669D-01 -0.249331D-02 -0.682641D-03
     29  0.424653D-01 -0.687170D-01  0.142409D+00 -0.389715D-03 -0.103019D-02
     30 -0.754638D-01  0.986829D-01 -0.476582D+00  0.773760D-03  0.266473D-03
     31  0.610443D-02 -0.340136D-02  0.501494D-03 -0.185778D+00 -0.185237D+00
     32 -0.156754D-02 -0.522041D-02 -0.181941D-02 -0.163681D+00 -0.208783D+00
     33  0.674436D-02 -0.207218D-02 -0.656901D-02 -0.127608D+00 -0.122799D+00
     34  0.460984D-02 -0.990110D-03 -0.397255D-03  0.266609D-02  0.368117D-01
     35  0.936997D-03  0.304050D-02 -0.404312D-03  0.411169D-02 -0.160229D-01
     36 -0.825167D-03 -0.268147D-03  0.465681D-04 -0.621306D-02  0.350788D-02
                6             7             8             9            10 
      6  0.286887D+00
      7 -0.234698D-01  0.710743D-01
      8  0.138923D+00 -0.201013D-02  0.251605D+00
      9 -0.187568D+00 -0.225437D-01 -0.181379D+00  0.187773D+00
     10 -0.496354D-02  0.467100D-02 -0.955243D-02  0.558628D-02  0.584139D+00
     11  0.336718D-02 -0.182457D-02  0.513454D-02 -0.622354D-02 -0.959613D-03
     12 -0.666850D-03 -0.257740D-02  0.115685D-02 -0.134031D-02  0.383724D-01
     13  0.145155D-01 -0.779430D-01  0.609342D-01  0.446521D-02 -0.904687D-01
     14  0.889179D-02  0.719878D-02  0.888706D-02 -0.100758D-01 -0.411607D-01
     15  0.629378D-02  0.883095D-02 -0.960794D-03 -0.215319D-02  0.160267D-01
     16  0.321972D-03 -0.357672D-03  0.940013D-03 -0.474979D-03 -0.303670D+00
     17 -0.162622D-02  0.132006D-02 -0.308412D-02  0.217188D-02 -0.199769D-01
     18  0.908302D-03  0.200312D-03  0.454426D-03 -0.556977D-03 -0.261358D-02
     19 -0.426093D-03  0.314164D-03 -0.450335D-03  0.852393D-04 -0.888890D-01
     20 -0.609728D-03 -0.122526D-04 -0.775555D-03  0.785550D-03  0.228016D-01
     21  0.138190D-02  0.184266D-03  0.866080D-03 -0.893595D-03 -0.854269D-01
     22 -0.170325D-02  0.475628D-02 -0.567988D-02  0.243502D-02  0.307415D-02
     23 -0.191879D-03 -0.215315D-03 -0.222154D-03  0.187773D-03  0.107248D-01
     24  0.546655D-04 -0.122872D-02  0.802459D-03  0.754524D-03 -0.334114D-02
     25 -0.508145D-02  0.128999D-02 -0.654210D-02  0.474172D-02  0.258285D-02
     26 -0.101205D-02  0.126689D-02 -0.144713D-02  0.921786D-03  0.122109D-01
     27 -0.500843D-03  0.182845D-02 -0.145237D-02  0.570875D-03 -0.430087D-02
     28 -0.475061D-03  0.754473D-03  0.488234D-03  0.102326D-02  0.185125D-02
     29  0.494077D-03  0.668474D-05  0.128703D-02 -0.482704D-03 -0.493204D-02
     30  0.372699D-03  0.132551D-03  0.569625D-03 -0.151723D-03 -0.482836D-02
     31 -0.111239D+00  0.117966D-01 -0.180385D-02  0.351574D-02 -0.603026D-02
     32 -0.901150D-01 -0.156545D-01 -0.476188D-01  0.103852D-01  0.209009D-02
     33 -0.109421D+00  0.221866D-01  0.421538D-01  0.645290D-02  0.544240D-04
     34 -0.311388D-01  0.270552D-01 -0.461210D-01  0.290657D-01 -0.207941D-01
     35  0.839980D-02  0.541870D-02  0.119946D-01 -0.641835D-02 -0.251343D-01
     36  0.357776D-02  0.144254D-01 -0.160346D-02 -0.504612D-02  0.124319D-01
               11            12            13            14            15 
     11  0.455883D+00
     12 -0.408294D-01  0.587281D+00
     13 -0.439333D-01  0.139447D-01  0.437244D+00
     14 -0.173984D+00  0.374765D-01 -0.463430D-01  0.511248D+00
     15  0.509969D-01 -0.100494D+00 -0.405607D-02  0.286454D-01  0.571950D+00
     16 -0.139141D-01  0.924110D-03 -0.960610D-02 -0.286029D-02 -0.639162D-03
     17 -0.466010D-01  0.229718D-02 -0.304903D-01 -0.220000D-02  0.111112D-02
     18  0.375956D-02 -0.528451D-01  0.121759D-01  0.326899D-02  0.888726D-03
     19  0.197630D-01 -0.938554D-01  0.491114D-02 -0.253058D-02  0.109062D-01
     20 -0.605067D-01  0.595174D-01  0.104764D-01 -0.674222D-02  0.288252D-01
     21  0.495861D-01 -0.264208D+00 -0.268492D-02  0.422657D-02 -0.794795D-02
     22 -0.250999D-02  0.140215D-01 -0.673472D-01  0.167844D-01 -0.848476D-01
     23 -0.740564D-02  0.304463D-01  0.160569D-01 -0.566248D-01  0.446196D-01
     24  0.193116D-03 -0.120191D-01 -0.783925D-01  0.457263D-01 -0.274936D+00
[...]
 Alpha virt. eigenvalues --    4.54729   4.63768   4.67230   4.68798   4.73977
 Alpha virt. eigenvalues --    4.75934   4.76539   4.79601   4.81155   4.84461
 Alpha virt. eigenvalues --    4.88004   4.89661   4.90913   4.92896   5.00884
 Alpha virt. eigenvalues --    5.04513   5.04626   5.11594   5.14221   5.19451
 Alpha virt. eigenvalues --    5.21147   5.27909   5.32307   5.34562   5.37942
 Alpha virt. eigenvalues --    5.40640   5.43364   5.53202   5.56121   5.57802
 Alpha virt. eigenvalues --    5.60936   5.70553   5.74072   5.83545   5.85957
 Alpha virt. eigenvalues --    5.90479   5.94041   6.17050   6.17874   6.22116
 Alpha virt. eigenvalues --    6.30035   6.34696   6.37917   6.40288   6.45841
 Alpha virt. eigenvalues --    6.49084   6.53464   6.59615   6.64975   6.67429
 Alpha virt. eigenvalues --    6.70805   6.77981   6.82227   6.86394   7.02682
 Alpha virt. eigenvalues --    7.04081   7.12224   7.16795   7.29386   7.38909
 Alpha virt. eigenvalues --    7.60789   9.47915  11.82286  12.06615  12.38496
 Alpha virt. eigenvalues --   14.00196
  Beta  occ. eigenvalues --  -19.72156 -19.68885 -19.64899 -10.59471 -10.52806
  Beta  occ. eigenvalues --   -1.29629  -1.17009  -0.93463  -0.86270  -0.72649
  Beta  occ. eigenvalues --   -0.63252  -0.59217  -0.54716  -0.54370  -0.53710
  Beta  occ. eigenvalues --   -0.48805  -0.45493  -0.43727  -0.41831  -0.36516
  Beta  occ. eigenvalues --   -0.34347
  Beta virt. eigenvalues --   -0.05830   0.05182   0.09091   0.09750   0.12314
  Beta virt. eigenvalues --    0.14012   0.15726   0.18740   0.20813   0.22580
  Beta virt. eigenvalues --    0.24338   0.28485   0.29565   0.34893   0.35730
  Beta virt. eigenvalues --    0.38948   0.40574   0.43290   0.45983   0.46282
  Beta virt. eigenvalues --    0.47182   0.49760   0.50380   0.51665   0.52424
  Beta virt. eigenvalues --    0.57863   0.58728   0.61676   0.62345   0.64069
  Beta virt. eigenvalues --    0.65175   0.70016   0.71847   0.73066   0.76028
  Beta virt. eigenvalues --    0.76737   0.82537   0.85132   0.86398   0.87940
  Beta virt. eigenvalues --    0.90750   0.93078   0.96087   0.99521   1.00753
  Beta virt. eigenvalues --    1.04272   1.07060   1.09900   1.12296   1.14211
  Beta virt. eigenvalues --    1.17867   1.18414   1.20876   1.22395   1.24586
  Beta virt. eigenvalues --    1.25767   1.27630   1.30559   1.31836   1.34555
  Beta virt. eigenvalues --    1.36096   1.38355   1.40253   1.44613   1.46346
  Beta virt. eigenvalues --    1.49826   1.54758   1.56873   1.57278   1.60551
  Beta virt. eigenvalues --    1.63879   1.71031   1.83660   1.94643   1.97345
  Beta virt. eigenvalues --    1.98238   2.03051   2.04866   2.07027   2.12673
  Beta virt. eigenvalues --    2.13901   2.22814   2.26997   2.27752   2.30228
  Beta virt. eigenvalues --    2.33117   2.36082   2.39503   2.50187   2.50898
  Beta virt. eigenvalues --    2.54950   2.59640   2.65008   2.65617   2.71382
  Beta virt. eigenvalues --    2.78553   2.80532   2.85491   2.87751   2.91181
  Beta virt. eigenvalues --    2.92595   2.95795   2.97101   2.98794   3.01639
  Beta virt. eigenvalues --    3.06447   3.08409   3.11481   3.13649   3.14721
  Beta virt. eigenvalues --    3.17699   3.20801   3.23717   3.28032   3.29101
  Beta virt. eigenvalues --    3.30675   3.33991   3.38223   3.41166   3.42197
  Beta virt. eigenvalues --    3.44296   3.44988   3.48550   3.52879   3.54961
  Beta virt. eigenvalues --    3.57420   3.61703   3.64192   3.65354   3.68798
  Beta virt. eigenvalues --    3.70310   3.72236   3.76750   3.77443   3.78313
  Beta virt. eigenvalues --    3.80550   3.80841   3.84684   3.87443   3.88886
  Beta virt. eigenvalues --    3.91298   3.92469   3.94491   3.96635   3.99399
  Beta virt. eigenvalues --    4.02075   4.04167   4.06227   4.09916   4.11179
  Beta virt. eigenvalues --    4.11905   4.14406   4.17411   4.19737   4.22225
  Beta virt. eigenvalues --    4.27943   4.31644   4.34736   4.36248   4.42520
  Beta virt. eigenvalues --    4.44082   4.54787   4.64117   4.67149   4.68831
  Beta virt. eigenvalues --    4.74106   4.76113   4.77699   4.79718   4.81320
  Beta virt. eigenvalues --    4.85156   4.88013   4.89989   4.91572   4.93984
  Beta virt. eigenvalues --    5.01085   5.04575   5.05289   5.11851   5.15672
  Beta virt. eigenvalues --    5.21338   5.22642   5.27944   5.33126   5.34635
  Beta virt. eigenvalues --    5.38112   5.40723   5.43529   5.53182   5.56172
  Beta virt. eigenvalues --    5.57670   5.62284   5.70631   5.74103   5.83614
  Beta virt. eigenvalues --    5.85953   5.91428   5.94211   6.18402   6.22276
  Beta virt. eigenvalues --    6.28234   6.35586   6.37726   6.40956   6.43118
  Beta virt. eigenvalues --    6.48819   6.51172   6.56462   6.60421   6.65361
  Beta virt. eigenvalues --    6.67822   6.71283   6.78613   6.82422   6.86528
  Beta virt. eigenvalues --    7.02871   7.06454   7.12529   7.18492   7.29148
  Beta virt. eigenvalues --    7.38988   7.61673   9.49234  11.82713  12.06836
  Beta virt. eigenvalues --   12.38501  14.00139
          Condensed to atoms (all electrons):
               1          2          3          4          5          6
     1  O    7.976240  -0.029770   0.001622   0.246496  -0.048535  -0.031409
     2  O   -0.029770   7.794309   0.080383   0.013231  -0.009307   0.000173
     3  O    0.001622   0.080383   8.095989  -0.003640  -0.010059  -0.000111
     4  C    0.246496   0.013231  -0.003640   4.846638   0.304112   0.408258
     5  C   -0.048535  -0.009307  -0.010059   0.304112   5.076911  -0.049553
     6  H   -0.031409   0.000173  -0.000111   0.408258  -0.049553   0.623179
     7  H   -0.039783   0.004619   0.000155   0.413912  -0.045709  -0.051005
     8  H   -0.004542   0.000871   0.000096  -0.024814   0.391740  -0.011087
     9  H    0.005862  -0.000221   0.000282  -0.036711   0.381515   0.003050
    10  H    0.303632   0.001212   0.000830  -0.031492  -0.004200  -0.006728
    11  H    0.048544   0.296091  -0.032909  -0.004427  -0.002131   0.001551
    12  H    0.009252  -0.014841   0.015374  -0.059575   0.375904   0.012494
               7          8          9         10         11         12
     1  O   -0.039783  -0.004542   0.005862   0.303632   0.048544   0.009252
     2  O    0.004619   0.000871  -0.000221   0.001212   0.296091  -0.014841
     3  O    0.000155   0.000096   0.000282   0.000830  -0.032909   0.015374
     4  C    0.413912  -0.024814  -0.036711  -0.031492  -0.004427  -0.059575
     5  C   -0.045709   0.391740   0.381515  -0.004200  -0.002131   0.375904
     6  H   -0.051005  -0.011087   0.003050  -0.006728   0.001551   0.012494
     7  H    0.590485   0.009044  -0.005365   0.009869  -0.008146  -0.014104
     8  H    0.009044   0.627410  -0.038286   0.006717  -0.000610  -0.056295
     9  H   -0.005365  -0.038286   0.583154  -0.000128  -0.000044  -0.000940
    10  H    0.009869   0.006717  -0.000128   0.454214  -0.004696  -0.003124
    11  H   -0.008146  -0.000610  -0.000044  -0.004696   0.420532   0.006288
    12  H   -0.014104  -0.056295  -0.000940  -0.003124   0.006288   0.573172
          Atomic-Atomic Spin Densities.
               1          2          3          4          5          6
     1  O    0.000150  -0.002180   0.000387  -0.000966   0.000395  -0.000442
     2  O   -0.002180   0.408148  -0.140382   0.007981   0.000276   0.000461
     3  O    0.000387  -0.140382   0.879031  -0.001831   0.002952  -0.000130
     4  C   -0.000966   0.007981  -0.001831   0.001929  -0.002106  -0.000773
     5  C    0.000395   0.000276   0.002952  -0.002106   0.003676  -0.000815
     6  H   -0.000442   0.000461  -0.000130  -0.000773  -0.000815   0.004899
     7  H    0.000406  -0.001501  -0.000067   0.000134   0.000272  -0.000249
     8  H    0.000031  -0.000051  -0.000043   0.000062  -0.000389   0.000040
     9  H    0.000005  -0.000194   0.000256   0.000548   0.000174  -0.000270
    10  H    0.000220  -0.000029  -0.000138  -0.000124   0.000066   0.000023
    11  H    0.001169   0.000775  -0.000024  -0.000239   0.000041  -0.000076
    12  H   -0.000160   0.000148  -0.006617   0.002503   0.004173  -0.000039
               7          8          9         10         11         12
     1  O    0.000406   0.000031   0.000005   0.000220   0.001169  -0.000160
     2  O   -0.001501  -0.000051  -0.000194  -0.000029   0.000775   0.000148
     3  O   -0.000067  -0.000043   0.000256  -0.000138  -0.000024  -0.006617
     4  C    0.000134   0.000062   0.000548  -0.000124  -0.000239   0.002503
     5  C    0.000272  -0.000389   0.000174   0.000066   0.000041   0.004173
     6  H   -0.000249   0.000040  -0.000270   0.000023  -0.000076  -0.000039
     7  H   -0.000740  -0.000079   0.000055  -0.000018   0.000082  -0.000004
     8  H   -0.000079  -0.000649   0.000117   0.000012   0.000033   0.000638
     9  H    0.000055   0.000117   0.000007  -0.000007   0.000031  -0.000685
    10  H   -0.000018   0.000012  -0.000007  -0.000203   0.000039  -0.000048
    11  H    0.000082   0.000033   0.000031   0.000039  -0.011865  -0.000661
    12  H   -0.000004   0.000638  -0.000685  -0.000048  -0.000661  -0.010716
 Mulliken charges and spin densities:
               1          2
     1  O   -0.437609  -0.000985
     2  O   -0.136751   0.273453
     3  O   -0.148012   0.733394
     4  C   -0.071987   0.007118
     5  C   -0.360689   0.008713
     6  H    0.101188   0.002629
     7  H    0.136028  -0.001709
     8  H    0.099755  -0.000279
     9  H    0.107831   0.000036
    10  H    0.273894  -0.000208
    11  H    0.279957  -0.010694
    12  H    0.156394  -0.011469
 Sum of Mulliken charges =  -0.00000   1.00000
 Mulliken charges and spin densities with hydrogens summed into heavy atoms:
               1          2
     1  O   -0.163715  -0.001193
     2  O    0.143206   0.262759
     3  O   -0.148012   0.733394
     4  C    0.165229   0.008038
     5  C    0.003292  -0.002998
 Electronic spatial extent (au):  <R**2>=            532.4407
 Charge=             -0.0000 electrons
 Dipole moment (field-independent basis, Debye):
    X=             -2.5128    Y=             -0.3482    Z=             -0.7039  Tot=              2.6327
 Quadrupole moment (field-independent basis, Debye-Ang):
   XX=            -33.7899   YY=            -32.0394   ZZ=            -28.8826
   XY=             -3.3585   XZ=              0.4491   YZ=              0.9508
 Traceless Quadrupole moment (field-independent basis, Debye-Ang):
   XX=             -2.2193   YY=             -0.4687   ZZ=              2.6880
   XY=             -3.3585   XZ=              0.4491   YZ=              0.9508
 Octapole moment (field-independent basis, Debye-Ang**2):
  XXX=             -0.6814  YYY=             -3.4633  ZZZ=             -5.5339  XYY=              5.3432
  XXY=             -2.8600  XXZ=             -1.6035  XZZ=             -2.0476  YZZ=             -4.2106
  YYZ=              0.2012  XYZ=             -1.0721
 Hexadecapole moment (field-independent basis, Debye-Ang**3):
 XXXX=           -404.4477 YYYY=           -177.1587 ZZZZ=            -66.6073 XXXY=             -1.6551
 XXXZ=              1.1712 YYYX=             -6.3427 YYYZ=              2.6508 ZZZX=              6.6728
 ZZZY=              4.8368 XXYY=            -96.0004 XXZZ=            -77.3328 YYZZ=            -37.6172
 XXYZ=              3.5835 YYXZ=             -0.5377 ZZXY=              3.8800
 N-N= 1.919533680190D+02 E-N=-1.102968600262D+03  KE= 3.044666545740D+02
                          Isotropic Fermi Contact Couplings
        Atom                 a.u.       MegaHertz       Gauss      10(-4) cm-1
     1  O(17)             -0.00076       0.46076       0.16441       0.15369
     2  O(17)              0.04663     -28.26721     -10.08644      -9.42893
     3  O(17)              0.15934     -96.59397     -34.46713     -32.22028
     4  C(13)              0.00225       2.52797       0.90204       0.84324
     5  C(13)              0.00064       0.72336       0.25811       0.24129
     6  H(1)               0.00085       3.81266       1.36045       1.27177
     7  H(1)               0.00041       1.81039       0.64599       0.60388
     8  H(1)              -0.00013      -0.56701      -0.20232      -0.18913
     9  H(1)              -0.00005      -0.23668      -0.08445      -0.07895
    10  H(1)              -0.00000      -0.00237      -0.00085      -0.00079
    11  H(1)              -0.00666     -29.75938     -10.61889      -9.92666
    12  H(1)              -0.00027      -1.19366      -0.42593      -0.39816
 --------------------------------------------------------
       Center         ----  Spin Dipole Couplings  ----
                      3XX-RR        3YY-RR        3ZZ-RR
 --------------------------------------------------------
     1   Atom        0.002051      0.000382     -0.002433
     2   Atom        0.687560      0.087436     -0.774996
     3   Atom        1.378001      0.131301     -1.509302
     4   Atom        0.008135     -0.004074     -0.004061
     5   Atom        0.014042     -0.006040     -0.008003
     6   Atom        0.003642     -0.001807     -0.001834
     7   Atom        0.006222     -0.004377     -0.001845
     8   Atom        0.004717     -0.002486     -0.002231
     9   Atom        0.002987     -0.000385     -0.002602
    10   Atom        0.004039     -0.002211     -0.001828
    11   Atom        0.010748      0.027286     -0.038035
    12   Atom        0.028681     -0.011899     -0.016782
 --------------------------------------------------------
                        XY            XZ            YZ
 --------------------------------------------------------
     1   Atom        0.006856      0.002617      0.002478
     2   Atom       -1.078247     -0.151776      0.165197
     3   Atom       -2.246822     -0.390566      0.317250
     4   Atom        0.002015      0.000513      0.000402
     5   Atom       -0.003120     -0.001417     -0.000712
     6   Atom        0.000298     -0.000541     -0.000030
     7   Atom        0.000986     -0.004612     -0.001125
     8   Atom       -0.002998      0.002701     -0.001251
     9   Atom       -0.003544     -0.001468      0.000876
    10   Atom        0.003265      0.003513      0.001456
    11   Atom        0.041400      0.015735      0.023029
    12   Atom       -0.015141     -0.002780     -0.003461
 --------------------------------------------------------


 ---------------------------------------------------------------------------------
              Anisotropic Spin Dipole Couplings in Principal Axis System
 ---------------------------------------------------------------------------------

       Atom             a.u.   MegaHertz   Gauss  10(-4) cm-1        Axes

              Baa    -0.0057     0.412     0.147     0.137 -0.6520  0.7565 -0.0518
     1 O(17)  Bbb    -0.0035     0.256     0.091     0.085 -0.2560 -0.1554  0.9541
              Bcc     0.0092    -0.668    -0.238    -0.223  0.7137  0.6353  0.2950
 
              Baa    -0.8150    58.970    21.042    19.670 -0.1915 -0.3935  0.8992
     2 O(17)  Bbb    -0.7129    51.588    18.408    17.208  0.5802  0.6935  0.4271
              Bcc     1.5279  -110.557   -39.450   -36.878  0.7916 -0.6035 -0.0955
 
              Baa    -1.5878   114.889    40.995    38.323  0.4562  0.6981 -0.5519
     3 O(17)  Bbb    -1.5530   112.372    40.097    37.483  0.4073  0.3876  0.8269
              Bcc     3.1407  -227.261   -81.092   -75.806  0.7912 -0.6020 -0.1075
 
              Baa    -0.0046    -0.617    -0.220    -0.206 -0.1121  0.8422 -0.5273
     4 C(13)  Bbb    -0.0039    -0.522    -0.186    -0.174 -0.1225  0.5149  0.8485
              Bcc     0.0085     1.139     0.406     0.380  0.9861  0.1597  0.0455
 
              Baa    -0.0085    -1.140    -0.407    -0.380  0.1132  0.4061  0.9068
     5 C(13)  Bbb    -0.0061    -0.817    -0.292    -0.273  0.1104  0.9019 -0.4177
              Bcc     0.0146     1.958     0.699     0.653  0.9874 -0.1474 -0.0573
 
              Baa    -0.0019    -1.007    -0.359    -0.336  0.0967  0.0134  0.9952
     6 H(1)   Bbb    -0.0018    -0.973    -0.347    -0.325 -0.0552  0.9984 -0.0081
              Bcc     0.0037     1.980     0.707     0.660  0.9938  0.0542 -0.0973
 
              Baa    -0.0049    -2.619    -0.935    -0.874  0.1419  0.8409  0.5223
     7 H(1)   Bbb    -0.0036    -1.895    -0.676    -0.632  0.4049 -0.5308  0.7445
              Bcc     0.0085     4.514     1.611     1.506  0.9033  0.1058 -0.4158
 
              Baa    -0.0037    -1.971    -0.703    -0.657  0.1781  0.8858  0.4285
     8 H(1)   Bbb    -0.0031    -1.646    -0.587    -0.549 -0.4187 -0.3259  0.8477
              Bcc     0.0068     3.617     1.291     1.206  0.8905 -0.3304  0.3128
 
              Baa    -0.0030    -1.582    -0.564    -0.528  0.2374 -0.0038  0.9714
     9 H(1)   Bbb    -0.0026    -1.397    -0.498    -0.466  0.5077  0.8530 -0.1207
              Bcc     0.0056     2.978     1.063     0.994  0.8282 -0.5218 -0.2044
 
              Baa    -0.0036    -1.928    -0.688    -0.643 -0.4633  0.8612  0.2089
    10 H(1)   Bbb    -0.0034    -1.839    -0.656    -0.613 -0.2636 -0.3590  0.8953
              Bcc     0.0071     3.767     1.344     1.257  0.8461  0.3597  0.3933
 
              Baa    -0.0455   -24.293    -8.668    -8.103 -0.0777 -0.2602  0.9624
    11 H(1)   Bbb    -0.0230   -12.248    -4.370    -4.086  0.7899 -0.6051 -0.0999
              Bcc     0.0685    36.541    13.039    12.189  0.6083  0.7524  0.2525
 
              Baa    -0.0210   -11.224    -4.005    -3.744  0.2430  0.6687  0.7027
    12 H(1)   Bbb    -0.0127    -6.786    -2.421    -2.264 -0.1990 -0.6746  0.7108
              Bcc     0.0338    18.010     6.426     6.008  0.9494 -0.3125 -0.0308
 

 ---------------------------------------------------------------------------------

 No NMR shielding tensors so no spin-rotation constants.
 Leave Link  601 at Thu May 30 08:04:07 2019, MaxMem=   671088640 cpu:               8.1 elap:               0.4
 (Enter /shared/centos7/gaussian/g16/l9999.exe)
 1\1\GINC-C0278\FTS\UM062X\CC-pVTZ\C2H7O3(2)\HARMS.N\30-May-2019\0\\#p 
 m062x/cc-pVTZ Opt=(ts,calcfc,noeigentest,ModRedun,maxcycles=900) scf=(
 maxcycle=900)\\Gaussian input prepared by ASE\\0,2\O,-0.8405436034,-1.
 1468881797,-0.3857963032\O,1.5864090512,-0.3804465822,0.4603406505\O,2
 .0284904934,0.4288560443,-0.4671146097\C,-1.331880159,-0.097369188,0.4
 548543174\C,-0.8807776984,1.2703352202,-0.0110618889\H,-2.4225643342,-
 0.1548693092,0.5081519027\H,-0.9406568314,-0.3176999291,1.4479586549\H
 ,-1.2334406313,1.4888162449,-1.0097867992\H,-1.2436946754,2.047001622,
 0.6734189693\H,-1.0151751162,-0.9103593627,-1.3013707707\H,0.982417002
 ,-1.0686719498,0.1095365502\H,0.1398475027,0.9748743692,-0.1699736735\
 \Version=EM64L-G16RevA.03\State=2-A\HF=-305.9237174\S2=0.754346\S2-1=0
 .\S2A=0.750011\RMSD=3.148e-09\RMSF=1.169e-02\Dipole=-1.00021,-0.134345
 3,-0.2331344\Quadrupole=-1.6000583,-0.392319,1.9923773,-2.4736929,0.45
 02799,0.7754991\PG=C01 [X(C2H7O3)]\\@


 10 WHATSOEVER THY HAND FINDETH TO DO, DO IT WITH THY  
 MIGHT. FOR THERE IS NO WORK, NOR DEVICE, NOR KNOWLEDGE, NOR  
 WISDOM, IN THE GRAVE, WHITHER THOU GOEST.                    
 11 I RETURNED AND SAW UNDER THE SUN, THAT THE RACE IS NOT TO 
 THE SWIFT, NOR THE BATTLE TO THE STRONG, NEITHER YET BREAD TO
 THE WISE, NOR YET RICHES TO MEN OF UNDERSTANDING, NOR YET    
 FAVOR TO MEN OF SKILL. BUT TIME AND CHANCE HAPPEN TO THEM ALL.
 12 FOR MAN ALSO KNOWETH NOT HIS TIME. AS THE FISHES   
 THAT ARE TAKEN IN AN EVIL NET, AND AS THE BIRDS THAT ARE     
 CAUGHT IN THE SNARE. SO ARE THE SONS OF MEN SNARED IN AN EVIL
 TIME, WHEN IT FALLETH SUDDENLY UPON THEM.
                                         ECCLESIASTES 9
 Job cpu time:       0 days  8 hours  5 minutes 52.2 seconds.
 Elapsed time:       0 days  0 hours 24 minutes 25.9 seconds.
 File lengths (MBytes):  RWF=   1360 Int=      0 D2E=      0 Chk=     32 Scr=     32
 Normal termination of Gaussian 16 at Thu May 30 08:04:07 2019.
