 Entering Gaussian System, Link 0=g16
 Input=/scratch/harms.n//autotst-2.0-QMScratch/ts/CCO+[O]O_OO+[CH2]CO/conformers/CCO+[O]O_OO+[CH2]CO_forward_4.com
 Output=/scratch/harms.n//autotst-2.0-QMScratch/ts/CCO+[O]O_OO+[CH2]CO/conformers/CCO+[O]O_OO+[CH2]CO_forward_4.log
 Initial command:
 /shared/centos7/gaussian/g16/l1.exe "/scratch/harms.n/gauss_scrdir/Gau-7881.inp" -scrdir="/scratch/harms.n/gauss_scrdir/"
 Entering Link 1 = /shared/centos7/gaussian/g16/l1.exe PID=      7882.
  
 Copyright (c) 1988,1990,1992,1993,1995,1998,2003,2009,2016,
            Gaussian, Inc.  All Rights Reserved.
  
 This is part of the Gaussian(R) 16 program.  It is based on
 the Gaussian(R) 09 system (copyright 2009, Gaussian, Inc.),
 the Gaussian(R) 03 system (copyright 2003, Gaussian, Inc.),
 the Gaussian(R) 98 system (copyright 1998, Gaussian, Inc.),
 the Gaussian(R) 94 system (copyright 1995, Gaussian, Inc.),
 the Gaussian 92(TM) system (copyright 1992, Gaussian, Inc.),
 the Gaussian 90(TM) system (copyright 1990, Gaussian, Inc.),
 the Gaussian 88(TM) system (copyright 1988, Gaussian, Inc.),
 the Gaussian 86(TM) system (copyright 1986, Carnegie Mellon
 University), and the Gaussian 82(TM) system (copyright 1983,
 Carnegie Mellon University). Gaussian is a federally registered
 trademark of Gaussian, Inc.
  
 This software contains proprietary and confidential information,
 including trade secrets, belonging to Gaussian, Inc.
  
 This software is provided under written license and may be
 used, copied, transmitted, or stored only in accord with that
 written license.
  
 The following legend is applicable only to US Government
 contracts under FAR:
  
                    RESTRICTED RIGHTS LEGEND
  
 Use, reproduction and disclosure by the US Government is
 subject to restrictions as set forth in subparagraphs (a)
 and (c) of the Commercial Computer Software - Restricted
 Rights clause in FAR 52.227-19.
  
 Gaussian, Inc.
 340 Quinnipiac St., Bldg. 40, Wallingford CT 06492
  
  
 ---------------------------------------------------------------
 Warning -- This program may not be used in any manner that
 competes with the business of Gaussian, Inc. or will provide
 assistance to any competitor of Gaussian, Inc.  The licensee
 of this program is prohibited from giving any competitor of
 Gaussian, Inc. access to this program.  By using this program,
 the user acknowledges that Gaussian, Inc. is engaged in the
 business of creating and licensing software in the field of
 computational chemistry and represents and warrants to the
 licensee that it is not a competitor of Gaussian, Inc. and that
 it will not use this program in any manner prohibited above.
 ---------------------------------------------------------------
  

 Cite this work as:
 Gaussian 16, Revision A.03,
 M. J. Frisch, G. W. Trucks, H. B. Schlegel, G. E. Scuseria, 
 M. A. Robb, J. R. Cheeseman, G. Scalmani, V. Barone, 
 G. A. Petersson, H. Nakatsuji, X. Li, M. Caricato, A. V. Marenich, 
 J. Bloino, B. G. Janesko, R. Gomperts, B. Mennucci, H. P. Hratchian, 
 J. V. Ortiz, A. F. Izmaylov, J. L. Sonnenberg, D. Williams-Young, 
 F. Ding, F. Lipparini, F. Egidi, J. Goings, B. Peng, A. Petrone, 
 T. Henderson, D. Ranasinghe, V. G. Zakrzewski, J. Gao, N. Rega, 
 G. Zheng, W. Liang, M. Hada, M. Ehara, K. Toyota, R. Fukuda, 
 J. Hasegawa, M. Ishida, T. Nakajima, Y. Honda, O. Kitao, H. Nakai, 
 T. Vreven, K. Throssell, J. A. Montgomery, Jr., J. E. Peralta, 
 F. Ogliaro, M. J. Bearpark, J. J. Heyd, E. N. Brothers, K. N. Kudin, 
 V. N. Staroverov, T. A. Keith, R. Kobayashi, J. Normand, 
 K. Raghavachari, A. P. Rendell, J. C. Burant, S. S. Iyengar, 
 J. Tomasi, M. Cossi, J. M. Millam, M. Klene, C. Adamo, R. Cammi, 
 J. W. Ochterski, R. L. Martin, K. Morokuma, O. Farkas, 
 J. B. Foresman, and D. J. Fox, Gaussian, Inc., Wallingford CT, 2016.
 
 ******************************************
 Gaussian 16:  EM64L-G16RevA.03 25-Dec-2016
                22-Jun-2019 
 ******************************************
 %nprocshared=20
 Will use up to   20 processors via shared memory.
 %mem=5GB
 ----------------------------------------------------------------------
 #p m062x/cc-pVTZ opt=(ts,calcfc,noeigentest,maxcycles=900) freq scf=(m
 axcycle=900) IOP(7/33=1,2/16=3)
 ----------------------------------------------------------------------
 1/5=1,6=900,10=4,11=1,18=20,26=3,38=1/1,3;
 2/9=110,12=2,16=3,17=6,18=5,40=1/2;
 3/5=16,6=1,11=2,25=1,30=1,71=2,74=-55,140=1/1,2,3;
 4//1;
 5/5=2,7=900,38=5/2;
 8/6=4,10=90,11=11/1;
 11/6=1,8=1,9=11,15=111,16=1/1,2,10;
 10/6=1,13=1/2;
 6/7=2,8=2,9=2,10=2,28=1/1;
 7/10=1,18=20,25=1,33=1/1,2,3,16;
 1/5=1,6=900,10=4,11=1,18=20,26=3/3(2);
 2/9=110,16=3/2;
 99//99;
 2/9=110,16=3/2;
 3/5=16,6=1,11=2,25=1,30=1,71=1,74=-55/1,2,3;
 4/5=5,16=3,69=1/1;
 5/5=2,7=900,38=5/2;
 7/33=1/1,2,3,16;
 1/5=1,6=900,11=1,18=20,26=3/3(-5);
 2/9=110,16=3/2;
 6/7=2,8=2,9=2,10=2,19=2,28=1/1;
 99/9=1/99;
 Leave Link    1 at Sat Jun 22 13:15:29 2019, MaxMem=   671088640 cpu:              22.8 elap:               1.3
 (Enter /shared/centos7/gaussian/g16/l101.exe)
 ------------------------------
 Gaussian input prepared by ASE
 ------------------------------
 Symbolic Z-matrix:
 Charge =  0 Multiplicity = 2
 O                     2.3996   -0.47345   0.12718 
 O                    -2.15215  -0.55219   0.42637 
 O                    -1.75829   0.35207  -0.55007 
 C                     1.09356  -0.21838  -0.36825 
 C                     0.42518   0.89919   0.37572 
 H                     1.10873  -0.01224  -1.44174 
 H                     0.5443   -1.14917  -0.22349 
 H                    -0.86889   0.9309   -0.06907 
 H                     0.79451   1.89942   0.15412 
 H                     0.26565   0.72062   1.43637 
 H                     2.9418    0.30564  -0.02002 
 H                    -1.81179  -1.39143   0.09119 
 
 Add virtual bond connecting atoms H8         and O3         Dist= 2.20D+00.
 Add virtual bond connecting atoms H8         and C5         Dist= 2.59D+00.
 ITRead=  0  0  0  0  0  0  0  0  0  0  0  0
 MicOpt= -1 -1 -1 -1 -1 -1 -1 -1 -1 -1 -1 -1
 NAtoms=     12 NQM=       12 NQMF=       0 NMMI=      0 NMMIF=      0
                NMic=       0 NMicF=      0.
                    Isotopes and Nuclear Properties:
 (Nuclear quadrupole moments (NQMom) in fm**2, nuclear magnetic moments (NMagM)
  in nuclear magnetons)

  Atom         1           2           3           4           5           6           7           8           9          10
 IAtWgt=          16          16          16          12          12           1           1           1           1           1
 AtmWgt=  15.9949146  15.9949146  15.9949146  12.0000000  12.0000000   1.0078250   1.0078250   1.0078250   1.0078250   1.0078250
 NucSpn=           0           0           0           0           0           1           1           1           1           1
 AtZEff=  -0.0000000  -0.0000000  -0.0000000  -0.0000000  -0.0000000  -0.0000000  -0.0000000  -0.0000000  -0.0000000  -0.0000000
 NQMom=    0.0000000   0.0000000   0.0000000   0.0000000   0.0000000   0.0000000   0.0000000   0.0000000   0.0000000   0.0000000
 NMagM=    0.0000000   0.0000000   0.0000000   0.0000000   0.0000000   2.7928460   2.7928460   2.7928460   2.7928460   2.7928460
 AtZNuc=   8.0000000   8.0000000   8.0000000   6.0000000   6.0000000   1.0000000   1.0000000   1.0000000   1.0000000   1.0000000

  Atom        11          12
 IAtWgt=           1           1
 AtmWgt=   1.0078250   1.0078250
 NucSpn=           1           1
 AtZEff=  -0.0000000  -0.0000000
 NQMom=    0.0000000   0.0000000
 NMagM=    2.7928460   2.7928460
 AtZNuc=   1.0000000   1.0000000
 Leave Link  101 at Sat Jun 22 13:15:30 2019, MaxMem=   671088640 cpu:               5.7 elap:               0.4
 (Enter /shared/centos7/gaussian/g16/l103.exe)

 GradGradGradGradGradGradGradGradGradGradGradGradGradGradGradGradGradGrad
 Berny optimization.
 Initialization pass.
                           ----------------------------
                           !    Initial Parameters    !
                           ! (Angstroms and Degrees)  !
 --------------------------                            --------------------------
 ! Name  Definition              Value          Derivative Info.                !
 --------------------------------------------------------------------------------
 ! R1    R(1,4)                  1.4199         calculate D2E/DX2 analytically  !
 ! R2    R(1,11)                 0.9605         calculate D2E/DX2 analytically  !
 ! R3    R(2,3)                  1.3879         calculate D2E/DX2 analytically  !
 ! R4    R(2,12)                 0.9657         calculate D2E/DX2 analytically  !
 ! R5    R(3,8)                  1.1651         calculate D2E/DX2 analytically  !
 ! R6    R(4,5)                  1.4997         calculate D2E/DX2 analytically  !
 ! R7    R(4,6)                  1.0932         calculate D2E/DX2 analytically  !
 ! R8    R(4,7)                  1.0904         calculate D2E/DX2 analytically  !
 ! R9    R(5,8)                  1.3687         calculate D2E/DX2 analytically  !
 ! R10   R(5,9)                  1.089          calculate D2E/DX2 analytically  !
 ! R11   R(5,10)                 1.0873         calculate D2E/DX2 analytically  !
 ! A1    A(4,1,11)             108.6645         calculate D2E/DX2 analytically  !
 ! A2    A(3,2,12)             102.8274         calculate D2E/DX2 analytically  !
 ! A3    A(2,3,8)              104.4696         calculate D2E/DX2 analytically  !
 ! A4    A(1,4,5)              111.7587         calculate D2E/DX2 analytically  !
 ! A5    A(1,4,6)              111.3289         calculate D2E/DX2 analytically  !
 ! A6    A(1,4,7)              105.2869         calculate D2E/DX2 analytically  !
 ! A7    A(5,4,6)              110.658          calculate D2E/DX2 analytically  !
 ! A8    A(5,4,7)              110.2274         calculate D2E/DX2 analytically  !
 ! A9    A(6,4,7)              107.356          calculate D2E/DX2 analytically  !
 ! A10   A(4,5,8)              106.1062         calculate D2E/DX2 analytically  !
 ! A11   A(4,5,9)              115.616          calculate D2E/DX2 analytically  !
 ! A12   A(4,5,10)             115.2703         calculate D2E/DX2 analytically  !
 ! A13   A(8,5,9)              103.488          calculate D2E/DX2 analytically  !
 ! A14   A(8,5,10)             100.4911         calculate D2E/DX2 analytically  !
 ! A15   A(9,5,10)             113.5206         calculate D2E/DX2 analytically  !
 ! A16   A(3,8,5)              147.6051         calculate D2E/DX2 analytically  !
 ! D1    D(11,1,4,5)           -63.2924         calculate D2E/DX2 analytically  !
 ! D2    D(11,1,4,6)            61.0148         calculate D2E/DX2 analytically  !
 ! D3    D(11,1,4,7)           177.0366         calculate D2E/DX2 analytically  !
 ! D4    D(12,2,3,8)          -105.3883         calculate D2E/DX2 analytically  !
 ! D5    D(2,3,8,5)             68.9418         calculate D2E/DX2 analytically  !
 ! D6    D(1,4,5,8)           -172.3246         calculate D2E/DX2 analytically  !
 ! D7    D(1,4,5,9)             73.6162         calculate D2E/DX2 analytically  !
 ! D8    D(1,4,5,10)           -62.0886         calculate D2E/DX2 analytically  !
 ! D9    D(6,4,5,8)             62.9935         calculate D2E/DX2 analytically  !
 ! D10   D(6,4,5,9)            -51.0657         calculate D2E/DX2 analytically  !
 ! D11   D(6,4,5,10)           173.2295         calculate D2E/DX2 analytically  !
 ! D12   D(7,4,5,8)            -55.6061         calculate D2E/DX2 analytically  !
 ! D13   D(7,4,5,9)           -169.6653         calculate D2E/DX2 analytically  !
 ! D14   D(7,4,5,10)            54.6299         calculate D2E/DX2 analytically  !
 ! D15   D(4,5,8,3)             24.3204         calculate D2E/DX2 analytically  !
 ! D16   D(9,5,8,3)            146.4627         calculate D2E/DX2 analytically  !
 ! D17   D(10,5,8,3)           -96.0344         calculate D2E/DX2 analytically  !
 --------------------------------------------------------------------------------
 Trust Radius=3.00D-01 FncErr=1.00D-07 GrdErr=1.00D-06 EigMax=2.50D+02 EigMin=1.00D-04
 Number of steps in this run=    100 maximum allowed number of steps=    100.
 Search for a saddle point of order  1.
 GradGradGradGradGradGradGradGradGradGradGradGradGradGradGradGradGradGrad

 Leave Link  103 at Sat Jun 22 13:15:30 2019, MaxMem=   671088640 cpu:               2.0 elap:               0.2
 (Enter /shared/centos7/gaussian/g16/l202.exe)
                          Input orientation:                          
 ---------------------------------------------------------------------
 Center     Atomic      Atomic             Coordinates (Angstroms)
 Number     Number       Type             X           Y           Z
 ---------------------------------------------------------------------
      1          8           0        2.399596   -0.473449    0.127178
      2          8           0       -2.152150   -0.552194    0.426372
      3          8           0       -1.758289    0.352069   -0.550072
      4          6           0        1.093561   -0.218381   -0.368247
      5          6           0        0.425176    0.899191    0.375715
      6          1           0        1.108731   -0.012243   -1.441744
      7          1           0        0.544301   -1.149169   -0.223488
      8          1           0       -0.868885    0.930900   -0.069068
      9          1           0        0.794512    1.899417    0.154121
     10          1           0        0.265654    0.720616    1.436372
     11          1           0        2.941796    0.305644   -0.020017
     12          1           0       -1.811791   -1.391431    0.091194
 ---------------------------------------------------------------------
                    Distance matrix (angstroms):
                    1          2          3          4          5
     1  O    0.000000
     2  O    4.562248   0.000000
     3  O    4.292803   1.387898   0.000000
     4  C    1.419941   3.358197   2.914022   0.000000
     5  C    2.417487   2.958326   2.433915   1.499728   0.000000
     6  H    2.083401   3.796676   3.024501   1.093215   2.145021
     7  H    2.005414   2.837172   2.768085   1.090416   2.137525
     8  H    3.562819   2.022819   1.165096   2.293807   1.368733
     9  H    2.864876   3.842829   3.067078   2.201674   1.089020
    10  H    2.773714   2.913061   2.859743   2.196314   1.087350
    11  H    0.960538   5.184924   4.730107   1.952393   2.615775
    12  H    4.310425   0.965664   1.858461   3.166734   3.214331
                    6          7          8          9         10
     6  H    0.000000
     7  H    1.759355   0.000000
     8  H    2.585483   2.519450   0.000000
     9  H    2.509973   3.082056   1.937712   0.000000
    10  H    3.087299   2.515726   1.896773   1.820283   0.000000
    11  H    2.341471   2.811737   3.861948   2.679788   3.074899
    12  H    3.575123   2.389327   2.511569   4.198387   3.253617
                   11         12
    11  H    0.000000
    12  H    5.048665   0.000000
 Stoichiometry    C2H7O3(2)
 Framework group  C1[X(C2H7O3)]
 Deg. of freedom    30
 Full point group                 C1      NOp   1
 Largest Abelian subgroup         C1      NOp   1
 Largest concise Abelian subgroup C1      NOp   1
                         Standard orientation:                         
 ---------------------------------------------------------------------
 Center     Atomic      Atomic             Coordinates (Angstroms)
 Number     Number       Type             X           Y           Z
 ---------------------------------------------------------------------
      1          8           0       -2.399596   -0.473449   -0.127178
      2          8           0        2.152150   -0.552194   -0.426372
      3          8           0        1.758289    0.352069    0.550072
      4          6           0       -1.093561   -0.218381    0.368247
      5          6           0       -0.425176    0.899191   -0.375715
      6          1           0       -1.108731   -0.012243    1.441744
      7          1           0       -0.544301   -1.149169    0.223488
      8          1           0        0.868885    0.930900    0.069068
      9          1           0       -0.794512    1.899417   -0.154121
     10          1           0       -0.265654    0.720616   -1.436372
     11          1           0       -2.941796    0.305644    0.020017
     12          1           0        1.811791   -1.391431   -0.091194
 ---------------------------------------------------------------------
 Rotational constants (GHZ):          11.3246099           1.9245628           1.8288736
 Leave Link  202 at Sat Jun 22 13:15:30 2019, MaxMem=   671088640 cpu:               2.1 elap:               0.1
 (Enter /shared/centos7/gaussian/g16/l301.exe)
 Standard basis: CC-pVTZ (5D, 7F)
 Ernie: Thresh=  0.10000D-02 Tol=  0.10000D-05 Strict=F.
 Ernie:  15 primitive shells out of 186 were deleted.
 There are   280 symmetry adapted cartesian basis functions of A   symmetry.
 There are   248 symmetry adapted basis functions of A   symmetry.
   248 basis functions,   379 primitive gaussians,   280 cartesian basis functions
    22 alpha electrons       21 beta electrons
       nuclear repulsion energy       185.1476178018 Hartrees.
 IExCor= 4336 DFT=T Ex+Corr=M062X ExCW=0 ScaHFX=  0.540000
 ScaDFX=  1.000000  1.000000  1.000000  1.000000 ScalE2=  1.000000  1.000000
 IRadAn=      5 IRanWt=     -1 IRanGd=            0 ICorTp=0 IEmpDi=  4
 NAtoms=   12 NActive=   12 NUniq=   12 SFac= 1.00D+00 NAtFMM=   60 NAOKFM=F Big=F
 Integral buffers will be    131072 words long.
 Raffenetti 2 integral format.
 Two-electron integral symmetry is turned on.
 Leave Link  301 at Sat Jun 22 13:15:30 2019, MaxMem=   671088640 cpu:               1.8 elap:               0.1
 (Enter /shared/centos7/gaussian/g16/l302.exe)
 NPDir=0 NMtPBC=     1 NCelOv=     1 NCel=       1 NClECP=     1 NCelD=      1
         NCelK=      1 NCelE2=     1 NClLst=     1 CellRange=     0.0.
 One-electron integrals computed using PRISM.
 One-electron integral symmetry used in STVInt
 NBasis=   248 RedAO= T EigKep=  8.62D-04  NBF=   248
 NBsUse=   248 1.00D-06 EigRej= -1.00D+00 NBFU=   248
 Precomputing XC quadrature grid using
 IXCGrd= 4 IRadAn=           5 IRanWt=          -1 IRanGd=           0 AccXCQ= 0.00D+00.
 Generated NRdTot=       0 NPtTot=           0 NUsed=           0 NTot=          32
 NSgBfM=   280   280   280   280   280 MxSgAt=    12 MxSgA2=    12.
 Leave Link  302 at Sat Jun 22 13:15:31 2019, MaxMem=   671088640 cpu:               7.6 elap:               0.4
 (Enter /shared/centos7/gaussian/g16/l303.exe)
 DipDrv:  MaxL=1.
 Leave Link  303 at Sat Jun 22 13:15:31 2019, MaxMem=   671088640 cpu:               5.8 elap:               0.4
 (Enter /shared/centos7/gaussian/g16/l401.exe)
 ExpMin= 1.03D-01 ExpMax= 1.53D+04 ExpMxC= 5.22D+02 IAcc=3 IRadAn=         5 AccDes= 0.00D+00
 Harris functional with IExCor= 1009 and IRadAn=       5 diagonalized for initial guess.
 HarFok:  IExCor= 1009 AccDes= 0.00D+00 IRadAn=         5 IDoV= 1 UseB2=F ITyADJ=14
 ICtDFT=  3500011 ScaDFX=  1.000000  1.000000  1.000000  1.000000
 FoFCou: FMM=F IPFlag=           0 FMFlag=      100000 FMFlg1=           0
         NFxFlg=           0 DoJE=T BraDBF=F KetDBF=T FulRan=T
         wScrn=  0.000000 ICntrl=       500 IOpCl=  0 I1Cent=   200000004 NGrid=           0
         NMat0=    1 NMatS0=      1 NMatT0=    0 NMatD0=    1 NMtDS0=    0 NMtDT0=    0
 Petite list used in FoFCou.
 Harris En= -305.775571399027    
 JPrj=0 DoOrth=F DoCkMO=F.
 Initial guess <Sx>= 0.0000 <Sy>= 0.0000 <Sz>= 0.5000 <S**2>= 0.7500 S= 0.5000
 Leave Link  401 at Sat Jun 22 13:15:32 2019, MaxMem=   671088640 cpu:              23.1 elap:               1.2
 (Enter /shared/centos7/gaussian/g16/l502.exe)
 Integral symmetry usage will be decided dynamically.
 UHF open shell SCF:
 Using DIIS extrapolation, IDIIS=  1040.
 NGot=   671088640 LenX=   670923676 LenY=   670844835
 Requested convergence on RMS density matrix=1.00D-08 within 900 cycles.
 Requested convergence on MAX density matrix=1.00D-06.
 Requested convergence on             energy=1.00D-06.
 No special actions if energy rises.
 Fock matrices will be formed incrementally for  20 cycles.
 Integral accuracy reduced to 1.0D-05 until final iterations.

 Cycle   1  Pass 0  IDiag  1:
 FoFJK:  IHMeth= 1 ICntrl=       0 DoSepK=F KAlg= 0 I1Cent=           0 FoldK=F
 IRaf= 970000000 NMat=       1 IRICut=       1 DoRegI=T DoRafI=F ISym2E= 0 IDoP0=0 IntGTp=1.
 FoFCou: FMM=F IPFlag=           0 FMFlag=      100000 FMFlg1=           0
         NFxFlg=           0 DoJE=F BraDBF=F KetDBF=F FulRan=T
         wScrn=  0.000000 ICntrl=         0 IOpCl=  1 I1Cent=           0 NGrid=           0
         NMat0=    1 NMatS0=      1 NMatT0=    0 NMatD0=    1 NMtDS0=    0 NMtDT0=    0
 Symmetry not used in FoFCou.
 E= -305.731779881729    
 DIIS: error= 2.31D-02 at cycle   1 NSaved=   1.
 NSaved= 1 IEnMin= 1 EnMin= -305.731779881729     IErMin= 1 ErrMin= 2.31D-02
 ErrMax= 2.31D-02  0.00D+00 EMaxC= 1.00D-01 BMatC= 8.31D-01 BMatP= 8.31D-01
 IDIUse=3 WtCom= 7.69D-01 WtEn= 2.31D-01
 Coeff-Com:  0.100D+01
 Coeff-En:   0.100D+01
 Coeff:      0.100D+01
 Gap=     0.342 Goal=   None    Shift=    0.000
 Gap=     0.329 Goal=   None    Shift=    0.000
 GapD=    0.329 DampG=1.000 DampE=0.500 DampFc=0.5000 IDamp=-1.
 Damping current iteration by 5.00D-01
 RMSDP=2.33D-03 MaxDP=1.23D-01              OVMax= 2.55D-01

 Cycle   2  Pass 0  IDiag  1:
 RMSU=  1.17D-03    CP:  1.00D+00
 E= -305.808565444724     Delta-E=       -0.076785562994 Rises=F Damp=T
 DIIS: error= 7.93D-03 at cycle   2 NSaved=   2.
 NSaved= 2 IEnMin= 2 EnMin= -305.808565444724     IErMin= 2 ErrMin= 7.93D-03
 ErrMax= 7.93D-03  0.00D+00 EMaxC= 1.00D-01 BMatC= 8.11D-02 BMatP= 8.31D-01
 IDIUse=3 WtCom= 9.21D-01 WtEn= 7.93D-02
 Coeff-Com: -0.786D-01 0.108D+01
 Coeff-En:   0.000D+00 0.100D+01
 Coeff:     -0.724D-01 0.107D+01
 Gap=     0.366 Goal=   None    Shift=    0.000
 Gap=     0.280 Goal=   None    Shift=    0.000
 RMSDP=5.91D-04 MaxDP=1.75D-02 DE=-7.68D-02 OVMax= 1.20D-01

 Cycle   3  Pass 0  IDiag  1:
 RMSU=  5.72D-04    CP:  1.00D+00  8.83D-01
 E= -305.885212070538     Delta-E=       -0.076646625814 Rises=F Damp=F
 DIIS: error= 2.99D-03 at cycle   3 NSaved=   3.
 NSaved= 3 IEnMin= 3 EnMin= -305.885212070538     IErMin= 3 ErrMin= 2.99D-03
 ErrMax= 2.99D-03  0.00D+00 EMaxC= 1.00D-01 BMatC= 2.50D-02 BMatP= 8.11D-02
 IDIUse=3 WtCom= 9.70D-01 WtEn= 2.99D-02
 Coeff-Com: -0.904D-01 0.376D+00 0.714D+00
 Coeff-En:   0.000D+00 0.000D+00 0.100D+01
 Coeff:     -0.877D-01 0.365D+00 0.723D+00
 Gap=     0.360 Goal=   None    Shift=    0.000
 Gap=     0.256 Goal=   None    Shift=    0.000
 RMSDP=2.57D-04 MaxDP=9.74D-03 DE=-7.66D-02 OVMax= 4.45D-02

 Cycle   4  Pass 0  IDiag  1:
 RMSU=  2.24D-04    CP:  1.00D+00  9.64D-01  8.55D-01
 E= -305.889478257316     Delta-E=       -0.004266186778 Rises=F Damp=F
 DIIS: error= 2.45D-03 at cycle   4 NSaved=   4.
 NSaved= 4 IEnMin= 4 EnMin= -305.889478257316     IErMin= 4 ErrMin= 2.45D-03
 ErrMax= 2.45D-03  0.00D+00 EMaxC= 1.00D-01 BMatC= 6.34D-03 BMatP= 2.50D-02
 IDIUse=3 WtCom= 9.75D-01 WtEn= 2.45D-02
 Coeff-Com: -0.309D-01 0.731D-01 0.361D+00 0.596D+00
 Coeff-En:   0.000D+00 0.000D+00 0.368D-01 0.963D+00
 Coeff:     -0.301D-01 0.713D-01 0.353D+00 0.605D+00
 Gap=     0.355 Goal=   None    Shift=    0.000
 Gap=     0.260 Goal=   None    Shift=    0.000
 RMSDP=1.01D-04 MaxDP=3.65D-03 DE=-4.27D-03 OVMax= 1.34D-02

 Cycle   5  Pass 0  IDiag  1:
 RMSU=  7.48D-05    CP:  1.00D+00  9.59D-01  9.55D-01  8.37D-01
 E= -305.890767354435     Delta-E=       -0.001289097119 Rises=F Damp=F
 DIIS: error= 5.52D-04 at cycle   5 NSaved=   5.
 NSaved= 5 IEnMin= 5 EnMin= -305.890767354435     IErMin= 5 ErrMin= 5.52D-04
 ErrMax= 5.52D-04  0.00D+00 EMaxC= 1.00D-01 BMatC= 5.47D-04 BMatP= 6.34D-03
 IDIUse=3 WtCom= 9.94D-01 WtEn= 5.52D-03
 Coeff-Com: -0.268D-02-0.731D-02 0.812D-01 0.230D+00 0.698D+00
 Coeff-En:   0.000D+00 0.000D+00 0.000D+00 0.000D+00 0.100D+01
 Coeff:     -0.266D-02-0.727D-02 0.807D-01 0.229D+00 0.700D+00
 Gap=     0.357 Goal=   None    Shift=    0.000
 Gap=     0.261 Goal=   None    Shift=    0.000
 RMSDP=5.02D-05 MaxDP=1.71D-03 DE=-1.29D-03 OVMax= 9.07D-03

 Cycle   6  Pass 0  IDiag  1:
 RMSU=  3.16D-05    CP:  1.00D+00  9.53D-01  9.84D-01  9.71D-01  1.23D+00
 E= -305.890991210289     Delta-E=       -0.000223855854 Rises=F Damp=F
 DIIS: error= 4.75D-04 at cycle   6 NSaved=   6.
 NSaved= 6 IEnMin= 6 EnMin= -305.890991210289     IErMin= 6 ErrMin= 4.75D-04
 ErrMax= 4.75D-04  0.00D+00 EMaxC= 1.00D-01 BMatC= 1.81D-04 BMatP= 5.47D-04
 IDIUse=3 WtCom= 9.95D-01 WtEn= 4.75D-03
 Coeff-Com:  0.104D-01-0.287D-01-0.808D-01-0.115D+00 0.313D+00 0.901D+00
 Coeff-En:   0.000D+00 0.000D+00 0.000D+00 0.000D+00 0.000D+00 0.100D+01
 Coeff:      0.103D-01-0.286D-01-0.804D-01-0.115D+00 0.312D+00 0.902D+00
 Gap=     0.359 Goal=   None    Shift=    0.000
 Gap=     0.264 Goal=   None    Shift=    0.000
 RMSDP=4.82D-05 MaxDP=1.67D-03 DE=-2.24D-04 OVMax= 1.08D-02

 Cycle   7  Pass 0  IDiag  1:
 RMSU=  1.92D-05    CP:  1.00D+00  9.49D-01  1.01D+00  1.08D+00  1.68D+00
                    CP:  1.23D+00
 E= -305.891125728965     Delta-E=       -0.000134518677 Rises=F Damp=F
 DIIS: error= 1.95D-04 at cycle   7 NSaved=   7.
 NSaved= 7 IEnMin= 7 EnMin= -305.891125728965     IErMin= 7 ErrMin= 1.95D-04
 ErrMax= 1.95D-04  0.00D+00 EMaxC= 1.00D-01 BMatC= 3.73D-05 BMatP= 1.81D-04
 IDIUse=3 WtCom= 9.98D-01 WtEn= 1.95D-03
 Coeff-Com:  0.320D-02-0.453D-02-0.362D-01-0.102D+00-0.123D+00 0.277D+00
 Coeff-Com:  0.985D+00
 Coeff-En:   0.000D+00 0.000D+00 0.000D+00 0.000D+00 0.000D+00 0.000D+00
 Coeff-En:   0.100D+01
 Coeff:      0.320D-02-0.452D-02-0.361D-01-0.102D+00-0.122D+00 0.277D+00
 Coeff:      0.985D+00
 Gap=     0.360 Goal=   None    Shift=    0.000
 Gap=     0.265 Goal=   None    Shift=    0.000
 RMSDP=3.00D-05 MaxDP=1.01D-03 DE=-1.35D-04 OVMax= 7.24D-03

 Cycle   8  Pass 0  IDiag  1:
 RMSU=  8.15D-06    CP:  1.00D+00  9.48D-01  1.02D+00  1.13D+00  1.94D+00
                    CP:  1.64D+00  1.42D+00
 E= -305.891164035753     Delta-E=       -0.000038306787 Rises=F Damp=F
 DIIS: error= 7.66D-05 at cycle   8 NSaved=   8.
 NSaved= 8 IEnMin= 8 EnMin= -305.891164035753     IErMin= 8 ErrMin= 7.66D-05
 ErrMax= 7.66D-05  0.00D+00 EMaxC= 1.00D-01 BMatC= 4.88D-06 BMatP= 3.73D-05
 IDIUse=1 WtCom= 1.00D+00 WtEn= 0.00D+00
 Coeff-Com: -0.219D-02 0.515D-02 0.242D-01 0.378D-01-0.553D-04-0.193D+00
 Coeff-Com: -0.234D+00 0.136D+01
 Coeff:     -0.219D-02 0.515D-02 0.242D-01 0.378D-01-0.553D-04-0.193D+00
 Coeff:     -0.234D+00 0.136D+01
 Gap=     0.359 Goal=   None    Shift=    0.000
 Gap=     0.265 Goal=   None    Shift=    0.000
 RMSDP=1.44D-05 MaxDP=8.11D-04 DE=-3.83D-05 OVMax= 3.86D-03

 Cycle   9  Pass 0  IDiag  1:
 RMSU=  4.24D-06    CP:  1.00D+00  9.48D-01  1.03D+00  1.15D+00  2.04D+00
                    CP:  1.79D+00  1.81D+00  1.82D+00
 E= -305.891172725058     Delta-E=       -0.000008689305 Rises=F Damp=F
 DIIS: error= 3.42D-05 at cycle   9 NSaved=   9.
 NSaved= 9 IEnMin= 9 EnMin= -305.891172725058     IErMin= 9 ErrMin= 3.42D-05
 ErrMax= 3.42D-05  0.00D+00 EMaxC= 1.00D-01 BMatC= 1.71D-06 BMatP= 4.88D-06
 IDIUse=1 WtCom= 1.00D+00 WtEn= 0.00D+00
 Coeff-Com: -0.118D-02 0.219D-02 0.160D-01 0.326D-01 0.264D-01-0.129D+00
 Coeff-Com: -0.305D+00 0.473D+00 0.884D+00
 Coeff:     -0.118D-02 0.219D-02 0.160D-01 0.326D-01 0.264D-01-0.129D+00
 Coeff:     -0.305D+00 0.473D+00 0.884D+00
 Gap=     0.360 Goal=   None    Shift=    0.000
 Gap=     0.265 Goal=   None    Shift=    0.000
 RMSDP=7.30D-06 MaxDP=4.26D-04 DE=-8.69D-06 OVMax= 1.87D-03

 Initial convergence to 1.0D-05 achieved.  Increase integral accuracy.
 Cycle  10  Pass 1  IDiag  1:
 E= -305.891162953947     Delta-E=        0.000009771111 Rises=F Damp=F
 DIIS: error= 1.69D-05 at cycle   1 NSaved=   1.
 NSaved= 1 IEnMin= 1 EnMin= -305.891162953947     IErMin= 1 ErrMin= 1.69D-05
 ErrMax= 1.69D-05  0.00D+00 EMaxC= 1.00D-01 BMatC= 1.07D-06 BMatP= 1.07D-06
 IDIUse=1 WtCom= 1.00D+00 WtEn= 0.00D+00
 Coeff-Com:  0.100D+01
 Coeff:      0.100D+01
 Gap=     0.360 Goal=   None    Shift=    0.000
 Gap=     0.265 Goal=   None    Shift=    0.000
 RMSDP=7.30D-06 MaxDP=4.26D-04 DE= 9.77D-06 OVMax= 5.64D-04

 Cycle  11  Pass 1  IDiag  1:
 RMSU=  3.90D-06    CP:  1.00D+00
 E= -305.891163432667     Delta-E=       -0.000000478720 Rises=F Damp=F
 DIIS: error= 1.39D-05 at cycle   2 NSaved=   2.
 NSaved= 2 IEnMin= 2 EnMin= -305.891163432667     IErMin= 2 ErrMin= 1.39D-05
 ErrMax= 1.39D-05  0.00D+00 EMaxC= 1.00D-01 BMatC= 1.82D-07 BMatP= 1.07D-06
 IDIUse=1 WtCom= 1.00D+00 WtEn= 0.00D+00
 Coeff-Com:  0.779D-01 0.922D+00
 Coeff:      0.779D-01 0.922D+00
 Gap=     0.360 Goal=   None    Shift=    0.000
 Gap=     0.265 Goal=   None    Shift=    0.000
 RMSDP=1.45D-06 MaxDP=8.64D-05 DE=-4.79D-07 OVMax= 3.27D-04

 Cycle  12  Pass 1  IDiag  1:
 RMSU=  1.22D-06    CP:  1.00D+00  1.20D+00
 E= -305.891163602323     Delta-E=       -0.000000169656 Rises=F Damp=F
 DIIS: error= 8.90D-06 at cycle   3 NSaved=   3.
 NSaved= 3 IEnMin= 3 EnMin= -305.891163602323     IErMin= 3 ErrMin= 8.90D-06
 ErrMax= 8.90D-06  0.00D+00 EMaxC= 1.00D-01 BMatC= 1.12D-07 BMatP= 1.82D-07
 IDIUse=1 WtCom= 1.00D+00 WtEn= 0.00D+00
 Coeff-Com: -0.938D-01 0.386D+00 0.708D+00
 Coeff:     -0.938D-01 0.386D+00 0.708D+00
 Gap=     0.360 Goal=   None    Shift=    0.000
 Gap=     0.265 Goal=   None    Shift=    0.000
 RMSDP=9.44D-07 MaxDP=4.65D-05 DE=-1.70D-07 OVMax= 2.34D-04

 Cycle  13  Pass 1  IDiag  1:
 RMSU=  6.47D-07    CP:  1.00D+00  1.34D+00  1.35D+00
 E= -305.891163693173     Delta-E=       -0.000000090850 Rises=F Damp=F
 DIIS: error= 6.03D-06 at cycle   4 NSaved=   4.
 NSaved= 4 IEnMin= 4 EnMin= -305.891163693173     IErMin= 4 ErrMin= 6.03D-06
 ErrMax= 6.03D-06  0.00D+00 EMaxC= 1.00D-01 BMatC= 2.97D-08 BMatP= 1.12D-07
 IDIUse=1 WtCom= 1.00D+00 WtEn= 0.00D+00
 Coeff-Com:  0.164D-02-0.491D+00-0.282D+00 0.177D+01
 Coeff:      0.164D-02-0.491D+00-0.282D+00 0.177D+01
 Gap=     0.360 Goal=   None    Shift=    0.000
 Gap=     0.265 Goal=   None    Shift=    0.000
 RMSDP=1.65D-06 MaxDP=1.02D-04 DE=-9.08D-08 OVMax= 4.03D-04

 Cycle  14  Pass 1  IDiag  1:
 RMSU=  2.81D-07    CP:  1.00D+00  1.55D+00  2.36D+00  2.07D+00
 E= -305.891163776461     Delta-E=       -0.000000083288 Rises=F Damp=F
 DIIS: error= 2.44D-06 at cycle   5 NSaved=   5.
 NSaved= 5 IEnMin= 5 EnMin= -305.891163776461     IErMin= 5 ErrMin= 2.44D-06
 ErrMax= 2.44D-06  0.00D+00 EMaxC= 1.00D-01 BMatC= 1.53D-08 BMatP= 2.97D-08
 IDIUse=1 WtCom= 1.00D+00 WtEn= 0.00D+00
 Coeff-Com:  0.298D-01-0.424D+00-0.399D+00 0.112D+01 0.672D+00
 Coeff:      0.298D-01-0.424D+00-0.399D+00 0.112D+01 0.672D+00
 Gap=     0.360 Goal=   None    Shift=    0.000
 Gap=     0.265 Goal=   None    Shift=    0.000
 RMSDP=6.71D-07 MaxDP=3.59D-05 DE=-8.33D-08 OVMax= 1.65D-04

 Cycle  15  Pass 1  IDiag  1:
 RMSU=  1.25D-07    CP:  1.00D+00  1.63D+00  2.74D+00  2.60D+00  9.98D-01
 E= -305.891163788590     Delta-E=       -0.000000012129 Rises=F Damp=F
 DIIS: error= 6.90D-07 at cycle   6 NSaved=   6.
 NSaved= 6 IEnMin= 6 EnMin= -305.891163788590     IErMin= 6 ErrMin= 6.90D-07
 ErrMax= 6.90D-07  0.00D+00 EMaxC= 1.00D-01 BMatC= 7.20D-10 BMatP= 1.53D-08
 IDIUse=1 WtCom= 1.00D+00 WtEn= 0.00D+00
 Coeff-Com:  0.776D-02-0.528D-01-0.709D-01 0.944D-01 0.153D+00 0.869D+00
 Coeff:      0.776D-02-0.528D-01-0.709D-01 0.944D-01 0.153D+00 0.869D+00
 Gap=     0.360 Goal=   None    Shift=    0.000
 Gap=     0.265 Goal=   None    Shift=    0.000
 RMSDP=1.25D-07 MaxDP=7.13D-06 DE=-1.21D-08 OVMax= 2.89D-05

 Cycle  16  Pass 1  IDiag  1:
 RMSU=  4.79D-08    CP:  1.00D+00  1.64D+00  2.81D+00  2.69D+00  1.13D+00
                    CP:  1.24D+00
 E= -305.891163789141     Delta-E=       -0.000000000550 Rises=F Damp=F
 DIIS: error= 6.09D-07 at cycle   7 NSaved=   7.
 NSaved= 7 IEnMin= 7 EnMin= -305.891163789141     IErMin= 7 ErrMin= 6.09D-07
 ErrMax= 6.09D-07  0.00D+00 EMaxC= 1.00D-01 BMatC= 4.12D-10 BMatP= 7.20D-10
 IDIUse=1 WtCom= 1.00D+00 WtEn= 0.00D+00
 Coeff-Com: -0.315D-02 0.801D-01 0.625D-01-0.235D+00-0.908D-01 0.493D+00
 Coeff-Com:  0.693D+00
 Coeff:     -0.315D-02 0.801D-01 0.625D-01-0.235D+00-0.908D-01 0.493D+00
 Coeff:      0.693D+00
 Gap=     0.360 Goal=   None    Shift=    0.000
 Gap=     0.265 Goal=   None    Shift=    0.000
 RMSDP=5.36D-08 MaxDP=1.87D-06 DE=-5.50D-10 OVMax= 1.24D-05

 Cycle  17  Pass 1  IDiag  1:
 RMSU=  2.64D-08    CP:  1.00D+00  1.64D+00  2.83D+00  2.72D+00  1.19D+00
                    CP:  1.45D+00  1.07D+00
 E= -305.891163789287     Delta-E=       -0.000000000146 Rises=F Damp=F
 DIIS: error= 1.73D-07 at cycle   8 NSaved=   8.
 NSaved= 8 IEnMin= 8 EnMin= -305.891163789287     IErMin= 8 ErrMin= 1.73D-07
 ErrMax= 1.73D-07  0.00D+00 EMaxC= 1.00D-01 BMatC= 4.02D-11 BMatP= 4.12D-10
 IDIUse=1 WtCom= 1.00D+00 WtEn= 0.00D+00
 Coeff-Com: -0.235D-02 0.308D-01 0.294D-01-0.747D-01-0.575D-01-0.679D-01
 Coeff-Com:  0.195D+00 0.947D+00
 Coeff:     -0.235D-02 0.308D-01 0.294D-01-0.747D-01-0.575D-01-0.679D-01
 Coeff:      0.195D+00 0.947D+00
 Gap=     0.360 Goal=   None    Shift=    0.000
 Gap=     0.265 Goal=   None    Shift=    0.000
 RMSDP=2.40D-08 MaxDP=6.90D-07 DE=-1.46D-10 OVMax= 5.06D-06

 Cycle  18  Pass 1  IDiag  1:
 RMSU=  9.25D-09    CP:  1.00D+00  1.64D+00  2.83D+00  2.73D+00  1.21D+00
                    CP:  1.54D+00  1.34D+00  1.31D+00
 E= -305.891163789319     Delta-E=       -0.000000000032 Rises=F Damp=F
 DIIS: error= 5.92D-08 at cycle   9 NSaved=   9.
 NSaved= 9 IEnMin= 9 EnMin= -305.891163789319     IErMin= 9 ErrMin= 5.92D-08
 ErrMax= 5.92D-08  0.00D+00 EMaxC= 1.00D-01 BMatC= 4.08D-12 BMatP= 4.02D-11
 IDIUse=1 WtCom= 1.00D+00 WtEn= 0.00D+00
 Coeff-Com:  0.254D-03-0.901D-02-0.689D-02 0.296D-01 0.405D-02-0.899D-01
 Coeff-Com: -0.809D-01 0.121D+00 0.103D+01
 Coeff:      0.254D-03-0.901D-02-0.689D-02 0.296D-01 0.405D-02-0.899D-01
 Coeff:     -0.809D-01 0.121D+00 0.103D+01
 Gap=     0.360 Goal=   None    Shift=    0.000
 Gap=     0.265 Goal=   None    Shift=    0.000
 RMSDP=1.10D-08 MaxDP=3.65D-07 DE=-3.24D-11 OVMax= 1.88D-06

 Cycle  19  Pass 1  IDiag  1:
 RMSU=  3.79D-09    CP:  1.00D+00  1.64D+00  2.83D+00  2.73D+00  1.21D+00
                    CP:  1.58D+00  1.46D+00  1.53D+00  1.29D+00
 E= -305.891163789322     Delta-E=       -0.000000000003 Rises=F Damp=F
 DIIS: error= 3.59D-08 at cycle  10 NSaved=  10.
 NSaved=10 IEnMin=10 EnMin= -305.891163789322     IErMin=10 ErrMin= 3.59D-08
 ErrMax= 3.59D-08  0.00D+00 EMaxC= 1.00D-01 BMatC= 6.90D-13 BMatP= 4.08D-12
 IDIUse=1 WtCom= 1.00D+00 WtEn= 0.00D+00
 Coeff-Com:  0.264D-03-0.522D-02-0.446D-02 0.152D-01 0.512D-02-0.186D-01
 Coeff-Com: -0.381D-01-0.500D-01 0.321D+00 0.774D+00
 Coeff:      0.264D-03-0.522D-02-0.446D-02 0.152D-01 0.512D-02-0.186D-01
 Coeff:     -0.381D-01-0.500D-01 0.321D+00 0.774D+00
 Gap=     0.360 Goal=   None    Shift=    0.000
 Gap=     0.265 Goal=   None    Shift=    0.000
 RMSDP=2.41D-09 MaxDP=8.50D-08 DE=-2.73D-12 OVMax= 4.86D-07

 SCF Done:  E(UM062X) =  -305.891163789     A.U. after   19 cycles
            NFock= 19  Conv=0.24D-08     -V/T= 2.0051
 <Sx>= 0.0000 <Sy>= 0.0000 <Sz>= 0.5000 <S**2>= 0.7605 S= 0.5053
 <L.S>= 0.000000000000E+00
 KE= 3.043446456255D+02 PE=-1.089466501478D+03 EE= 2.940830742614D+02
 Annihilation of the first spin contaminant:
 S**2 before annihilation     0.7605,   after     0.7501
 Leave Link  502 at Sat Jun 22 13:16:43 2019, MaxMem=   671088640 cpu:            1412.9 elap:              71.0
 (Enter /shared/centos7/gaussian/g16/l801.exe)
 DoSCS=F DFT=T ScalE2(SS,OS)=  1.000000  1.000000
 Range of M.O.s used for correlation:     1   248
 NBasis=   248 NAE=    22 NBE=    21 NFC=     0 NFV=     0
 NROrb=    248 NOA=    22 NOB=    21 NVA=   226 NVB=   227
 Leave Link  801 at Sat Jun 22 13:16:43 2019, MaxMem=   671088640 cpu:               1.8 elap:               0.2
 (Enter /shared/centos7/gaussian/g16/l1101.exe)
 Using compressed storage, NAtomX=    12.
 Will process     13 centers per pass.
 Leave Link 1101 at Sat Jun 22 13:16:44 2019, MaxMem=   671088640 cpu:               9.5 elap:               0.6
 (Enter /shared/centos7/gaussian/g16/l1102.exe)
 Symmetrizing basis deriv contribution to polar:
 IMax=3 JMax=2 DiffMx= 0.00D+00
 Leave Link 1102 at Sat Jun 22 13:16:44 2019, MaxMem=   671088640 cpu:               3.0 elap:               0.2
 (Enter /shared/centos7/gaussian/g16/l1110.exe)
 Forming Gx(P) for the SCF density, NAtomX=    12.
 Integral derivatives from FoFJK, PRISM(SPDF).
 Do as many integral derivatives as possible in FoFJK.
 G2DrvN: MDV=     671087640.
 G2DrvN: will do    13 centers at a time, making    1 passes.
 Calling FoFCou, ICntrl=  3107 FMM=F I1Cent=   0 AccDes= 0.00D+00.
 FoFJK:  IHMeth= 1 ICntrl=    3107 DoSepK=F KAlg= 0 I1Cent=           0 FoldK=F
 IRaf=         0 NMat=       1 IRICut=       1 DoRegI=T DoRafI=F ISym2E= 0 IDoP0=0 IntGTp=1.
 FoFCou: FMM=F IPFlag=           0 FMFlag=      100000 FMFlg1=           0
         NFxFlg=           0 DoJE=F BraDBF=F KetDBF=F FulRan=T
         wScrn=  0.000000 ICntrl=      3107 IOpCl=  1 I1Cent=           0 NGrid=           0
         NMat0=    1 NMatS0=      1 NMatT0=    0 NMatD0=    1 NMtDS0=    0 NMtDT0=    0
 Symmetry not used in FoFCou.
 End of G2Drv F.D. properties file   721 does not exist.
 End of G2Drv F.D. properties file   722 does not exist.
 End of G2Drv F.D. properties file   788 does not exist.
 Leave Link 1110 at Sat Jun 22 13:18:43 2019, MaxMem=   671088640 cpu:            2379.4 elap:             119.0
 (Enter /shared/centos7/gaussian/g16/l1002.exe)
 Minotr:  UHF open shell wavefunction.
          IDoAtm=111111111111
          Direct CPHF calculation.
          Differentiating once with respect to nuclear coordinates.
          Requested convergence is 1.0D-08 RMS, and 1.0D-07 maximum.
          Secondary convergence is 1.0D-12 RMS, and 1.0D-12 maximum.
          NewPWx=T KeepS1=F KeepF1=F KeepIn=T MapXYZ=F SortEE=F KeepMc=T.
         3584 words used for storage of precomputed grid.
 Two-electron integrals replicated using symmetry.
          MDV=     671088640 using IRadAn=       1.
          Solving linear equations simultaneously, MaxMat=     380.
 FoF2E skips out because all densities are zero.
 CalDSu exits because no D1Ps are significant.
 FoFJK:  IHMeth= 1 ICntrl=       0 DoSepK=F KAlg= 0 I1Cent=           0 FoldK=F
 IRaf= 960000000 NMat=      36 IRICut=      90 DoRegI=T DoRafI=T ISym2E= 2 IDoP0=3 IntGTp=3.
 FoFCou: FMM=F IPFlag=           0 FMFlag=      100000 FMFlg1=           0
         NFxFlg=           0 DoJE=F BraDBF=F KetDBF=F FulRan=T
         wScrn=  0.000000 ICntrl=         0 IOpCl=  1 I1Cent=           0 NGrid=           0
         NMat0=   36 NMatS0=     36 NMatT0=    0 NMatD0=   36 NMtDS0=    0 NMtDT0=    0
 Integrals replicated using symmetry in FoFCou.
 Raff kept on since  93.60% of shell-pairs survive, threshold=   0.20 IRatSp=94.
          There are    39 degrees of freedom in the 1st order CPHF.  IDoFFX=6 NUNeed=     0.
     33 vectors produced by pass  0 Test12= 2.50D-14 2.56D-09 XBig12= 1.39D-01 1.12D-01.
 AX will form    33 AO Fock derivatives at one time.
     33 vectors produced by pass  1 Test12= 2.50D-14 2.56D-09 XBig12= 1.73D-02 2.23D-02.
     33 vectors produced by pass  2 Test12= 2.50D-14 2.56D-09 XBig12= 7.47D-04 5.23D-03.
     33 vectors produced by pass  3 Test12= 2.50D-14 2.56D-09 XBig12= 1.67D-05 6.49D-04.
     33 vectors produced by pass  4 Test12= 2.50D-14 2.56D-09 XBig12= 2.91D-07 7.07D-05.
     33 vectors produced by pass  5 Test12= 2.50D-14 2.56D-09 XBig12= 4.65D-09 7.10D-06.
     33 vectors produced by pass  6 Test12= 2.50D-14 2.56D-09 XBig12= 5.85D-11 1.03D-06.
     17 vectors produced by pass  7 Test12= 2.50D-14 2.56D-09 XBig12= 4.55D-13 6.17D-08.
      4 vectors produced by pass  8 Test12= 2.50D-14 2.56D-09 XBig12= 2.58D-15 4.48D-09.
 InvSVY:  IOpt=1 It=  1 EMax= 1.67D-15
 Solved reduced A of dimension   252 with    33 vectors.
 End of Minotr F.D. properties file   721 does not exist.
 End of Minotr F.D. properties file   722 does not exist.
 End of Minotr F.D. properties file   788 does not exist.
 Leave Link 1002 at Sat Jun 22 13:22:12 2019, MaxMem=   671088640 cpu:            4165.5 elap:             208.5
 (Enter /shared/centos7/gaussian/g16/l601.exe)
 Copying SCF densities to generalized density rwf, IOpCl= 1 IROHF=0.

 **********************************************************************

            Population analysis using the SCF density.

 **********************************************************************

 Orbital symmetries:
 Alpha Orbitals:
       Occupied  (A) (A) (A) (A) (A) (A) (A) (A) (A) (A) (A) (A)
                 (A) (A) (A) (A) (A) (A) (A) (A) (A) (A)
       Virtual   (A) (A) (A) (A) (A) (A) (A) (A) (A) (A) (A) (A)
                 (A) (A) (A) (A) (A) (A) (A) (A) (A) (A) (A) (A)
                 (A) (A) (A) (A) (A) (A) (A) (A) (A) (A) (A) (A)
                 (A) (A) (A) (A) (A) (A) (A) (A) (A) (A) (A) (A)
                 (A) (A) (A) (A) (A) (A) (A) (A) (A) (A) (A) (A)
                 (A) (A) (A) (A) (A) (A) (A) (A) (A) (A) (A) (A)
                 (A) (A) (A) (A) (A) (A) (A) (A) (A) (A) (A) (A)
                 (A) (A) (A) (A) (A) (A) (A) (A) (A) (A) (A) (A)
                 (A) (A) (A) (A) (A) (A) (A) (A) (A) (A) (A) (A)
                 (A) (A) (A) (A) (A) (A) (A) (A) (A) (A) (A) (A)
                 (A) (A) (A) (A) (A) (A) (A) (A) (A) (A) (A) (A)
                 (A) (A) (A) (A) (A) (A) (A) (A) (A) (A) (A) (A)
                 (A) (A) (A) (A) (A) (A) (A) (A) (A) (A) (A) (A)
                 (A) (A) (A) (A) (A) (A) (A) (A) (A) (A) (A) (A)
                 (A) (A) (A) (A) (A) (A) (A) (A) (A) (A) (A) (A)
                 (A) (A) (A) (A) (A) (A) (A) (A) (A) (A) (A) (A)
                 (A) (A) (A) (A) (A) (A) (A) (A) (A) (A) (A) (A)
                 (A) (A) (A) (A) (A) (A) (A) (A) (A) (A) (A) (A)
                 (A) (A) (A) (A) (A) (A) (A) (A) (A) (A)
 Beta  Orbitals:
       Occupied  (A) (A) (A) (A) (A) (A) (A) (A) (A) (A) (A) (A)
                 (A) (A) (A) (A) (A) (A) (A) (A) (A)
       Virtual   (A) (A) (A) (A) (A) (A) (A) (A) (A) (A) (A) (A)
                 (A) (A) (A) (A) (A) (A) (A) (A) (A) (A) (A) (A)
                 (A) (A) (A) (A) (A) (A) (A) (A) (A) (A) (A) (A)
                 (A) (A) (A) (A) (A) (A) (A) (A) (A) (A) (A) (A)
                 (A) (A) (A) (A) (A) (A) (A) (A) (A) (A) (A) (A)
                 (A) (A) (A) (A) (A) (A) (A) (A) (A) (A) (A) (A)
                 (A) (A) (A) (A) (A) (A) (A) (A) (A) (A) (A) (A)
                 (A) (A) (A) (A) (A) (A) (A) (A) (A) (A) (A) (A)
                 (A) (A) (A) (A) (A) (A) (A) (A) (A) (A) (A) (A)
                 (A) (A) (A) (A) (A) (A) (A) (A) (A) (A) (A) (A)
                 (A) (A) (A) (A) (A) (A) (A) (A) (A) (A) (A) (A)
                 (A) (A) (A) (A) (A) (A) (A) (A) (A) (A) (A) (A)
                 (A) (A) (A) (A) (A) (A) (A) (A) (A) (A) (A) (A)
                 (A) (A) (A) (A) (A) (A) (A) (A) (A) (A) (A) (A)
                 (A) (A) (A) (A) (A) (A) (A) (A) (A) (A) (A) (A)
                 (A) (A) (A) (A) (A) (A) (A) (A) (A) (A) (A) (A)
                 (A) (A) (A) (A) (A) (A) (A) (A) (A) (A) (A) (A)
                 (A) (A) (A) (A) (A) (A) (A) (A) (A) (A) (A) (A)
                 (A) (A) (A) (A) (A) (A) (A) (A) (A) (A) (A)
 The electronic state is 2-A.
 Alpha  occ. eigenvalues --  -19.69783 -19.69709 -19.63092 -10.59703 -10.56124
 Alpha  occ. eigenvalues --   -1.28004  -1.15632  -1.00118  -0.86336  -0.72656
 Alpha  occ. eigenvalues --   -0.63220  -0.60138  -0.59418  -0.54680  -0.52483
 Alpha  occ. eigenvalues --   -0.51251  -0.47669  -0.42055  -0.40926  -0.38520
 Alpha  occ. eigenvalues --   -0.36960  -0.30778
 Alpha virt. eigenvalues --    0.05181   0.06134   0.10109   0.10915   0.12640
 Alpha virt. eigenvalues --    0.14989   0.16807   0.19606   0.22686   0.24147
 Alpha virt. eigenvalues --    0.28409   0.32118   0.32938   0.35759   0.38363
 Alpha virt. eigenvalues --    0.42024   0.43037   0.45691   0.45999   0.48077
 Alpha virt. eigenvalues --    0.49120   0.49889   0.51254   0.53814   0.55670
 Alpha virt. eigenvalues --    0.56833   0.57414   0.62300   0.63589   0.67564
 Alpha virt. eigenvalues --    0.70619   0.71089   0.72499   0.74794   0.75692
 Alpha virt. eigenvalues --    0.77802   0.79187   0.84483   0.85962   0.87192
 Alpha virt. eigenvalues --    0.87911   0.93203   0.98162   1.00716   1.05079
 Alpha virt. eigenvalues --    1.07065   1.07946   1.11616   1.11938   1.14701
 Alpha virt. eigenvalues --    1.16622   1.19709   1.20811   1.21855   1.26350
 Alpha virt. eigenvalues --    1.29981   1.31606   1.32803   1.34620   1.36866
 Alpha virt. eigenvalues --    1.38907   1.45349   1.47245   1.48012   1.50720
 Alpha virt. eigenvalues --    1.52167   1.57050   1.58135   1.66617   1.68113
 Alpha virt. eigenvalues --    1.80744   1.89921   1.90820   1.91125   1.93992
 Alpha virt. eigenvalues --    1.98221   1.99608   2.07538   2.11207   2.13745
 Alpha virt. eigenvalues --    2.17277   2.24103   2.25839   2.30098   2.34433
 Alpha virt. eigenvalues --    2.41593   2.42422   2.44242   2.52506   2.53946
 Alpha virt. eigenvalues --    2.56495   2.58462   2.63913   2.67491   2.73831
 Alpha virt. eigenvalues --    2.75443   2.82098   2.86386   2.90355   2.93558
 Alpha virt. eigenvalues --    2.95156   2.95807   2.97791   2.99126   3.04878
 Alpha virt. eigenvalues --    3.06595   3.07078   3.11237   3.11809   3.15014
 Alpha virt. eigenvalues --    3.17464   3.23910   3.24829   3.25422   3.28785
 Alpha virt. eigenvalues --    3.31001   3.32516   3.35882   3.40302   3.42024
 Alpha virt. eigenvalues --    3.42322   3.45280   3.47213   3.49029   3.52636
 Alpha virt. eigenvalues --    3.56646   3.59171   3.62977   3.67353   3.67714
 Alpha virt. eigenvalues --    3.70869   3.72001   3.74196   3.75703   3.77443
 Alpha virt. eigenvalues --    3.80124   3.80730   3.83756   3.84829   3.86527
 Alpha virt. eigenvalues --    3.90185   3.90573   3.93738   3.95500   3.98590
 Alpha virt. eigenvalues --    3.99223   4.00681   4.04783   4.08374   4.11706
 Alpha virt. eigenvalues --    4.14144   4.14536   4.18932   4.20858   4.22170
 Alpha virt. eigenvalues --    4.25020   4.29156   4.32167   4.36748   4.37735
 Alpha virt. eigenvalues --    4.41677   4.45640   4.51022   4.59342   4.65715
 Alpha virt. eigenvalues --    4.68392   4.70183   4.73592   4.76599   4.81441
 Alpha virt. eigenvalues --    4.85154   4.86830   4.91554   4.97898   5.01553
 Alpha virt. eigenvalues --    5.03159   5.08267   5.09663   5.12217   5.15892
 Alpha virt. eigenvalues --    5.19904   5.20779   5.27739   5.32187   5.36833
 Alpha virt. eigenvalues --    5.39865   5.45311   5.54567   5.55805   5.69106
 Alpha virt. eigenvalues --    5.74543   5.80077   5.82615   5.93069   5.94788
 Alpha virt. eigenvalues --    6.10036   6.15561   6.20196   6.30474   6.35466
 Alpha virt. eigenvalues --    6.36363   6.44893   6.46903   6.53164   6.57439
 Alpha virt. eigenvalues --    6.62052   6.63441   6.68739   6.69520   6.71076
 Alpha virt. eigenvalues --    6.72828   6.82415   6.84872   6.86771   6.94186
 Alpha virt. eigenvalues --    7.12419   7.13070   7.19504   7.37728   7.43279
 Alpha virt. eigenvalues --    7.58935   9.91811  11.22291  11.75661  12.07078
 Alpha virt. eigenvalues --   12.85338
  Beta  occ. eigenvalues --  -19.69564 -19.68815 -19.62985 -10.59737 -10.55602
  Beta  occ. eigenvalues --   -1.26318  -1.15263  -0.97706  -0.84843  -0.71536
  Beta  occ. eigenvalues --   -0.61687  -0.59440  -0.56478  -0.53872  -0.50992
  Beta  occ. eigenvalues --   -0.49602  -0.46914  -0.41168  -0.38613  -0.37014
  Beta  occ. eigenvalues --   -0.35181
  Beta virt. eigenvalues --   -0.08654   0.05305   0.06041   0.10228   0.11086
  Beta virt. eigenvalues --    0.12966   0.15454   0.16925   0.20033   0.22887
  Beta virt. eigenvalues --    0.24742   0.28378   0.32427   0.33570   0.36227
  Beta virt. eigenvalues --    0.38443   0.42188   0.43476   0.46605   0.47346
  Beta virt. eigenvalues --    0.48558   0.49956   0.50588   0.51632   0.54197
  Beta virt. eigenvalues --    0.56152   0.57070   0.57819   0.63069   0.63917
  Beta virt. eigenvalues --    0.67664   0.70825   0.71489   0.72711   0.74963
  Beta virt. eigenvalues --    0.76176   0.78073   0.79363   0.84619   0.86133
  Beta virt. eigenvalues --    0.87424   0.88051   0.93337   0.98259   1.00956
  Beta virt. eigenvalues --    1.05126   1.07381   1.08445   1.12034   1.12279
  Beta virt. eigenvalues --    1.15051   1.16860   1.20373   1.20847   1.22389
  Beta virt. eigenvalues --    1.26398   1.30525   1.31949   1.33045   1.35141
  Beta virt. eigenvalues --    1.37423   1.38973   1.45733   1.47575   1.48388
  Beta virt. eigenvalues --    1.51445   1.52920   1.57824   1.58931   1.67021
  Beta virt. eigenvalues --    1.69167   1.81676   1.90445   1.91232   1.91927
  Beta virt. eigenvalues --    1.94561   1.98411   1.99805   2.08053   2.11897
  Beta virt. eigenvalues --    2.14052   2.17545   2.24541   2.26687   2.30307
  Beta virt. eigenvalues --    2.34864   2.42117   2.43281   2.45275   2.52754
  Beta virt. eigenvalues --    2.55052   2.56973   2.59248   2.65576   2.68509
  Beta virt. eigenvalues --    2.75454   2.76543   2.83298   2.86989   2.92262
  Beta virt. eigenvalues --    2.94286   2.96284   2.97152   2.99631   3.00192
  Beta virt. eigenvalues --    3.05566   3.07988   3.09809   3.12558   3.13053
  Beta virt. eigenvalues --    3.16419   3.18528   3.24614   3.25160   3.26570
  Beta virt. eigenvalues --    3.29577   3.31625   3.33167   3.36796   3.40827
  Beta virt. eigenvalues --    3.42796   3.42822   3.45813   3.48174   3.49387
  Beta virt. eigenvalues --    3.52957   3.57203   3.59508   3.63889   3.67871
  Beta virt. eigenvalues --    3.68088   3.71359   3.72361   3.74559   3.76128
  Beta virt. eigenvalues --    3.77767   3.80812   3.81358   3.84563   3.85443
  Beta virt. eigenvalues --    3.86843   3.90695   3.90921   3.94437   3.95822
  Beta virt. eigenvalues --    3.99313   3.99633   4.01424   4.05088   4.08769
  Beta virt. eigenvalues --    4.12013   4.14498   4.14715   4.19644   4.21792
  Beta virt. eigenvalues --    4.22270   4.25866   4.29997   4.33084   4.37388
  Beta virt. eigenvalues --    4.39626   4.42041   4.46515   4.52072   4.59941
  Beta virt. eigenvalues --    4.66373   4.68868   4.70773   4.75769   4.77000
  Beta virt. eigenvalues --    4.82160   4.86533   4.87140   4.92901   4.99076
  Beta virt. eigenvalues --    5.02939   5.04394   5.09378   5.10455   5.12920
  Beta virt. eigenvalues --    5.17030   5.20911   5.21663   5.28747   5.34642
  Beta virt. eigenvalues --    5.37786   5.41674   5.48637   5.54904   5.57196
  Beta virt. eigenvalues --    5.69867   5.78115   5.81171   5.83488   5.93288
  Beta virt. eigenvalues --    5.95294   6.10804   6.16344   6.21350   6.31265
  Beta virt. eigenvalues --    6.36114   6.36292   6.45578   6.47057   6.54085
  Beta virt. eigenvalues --    6.60228   6.63147   6.63751   6.69069   6.69809
  Beta virt. eigenvalues --    6.72079   6.74052   6.82652   6.85156   6.88053
  Beta virt. eigenvalues --    6.94325   7.12536   7.13233   7.20291   7.37841
  Beta virt. eigenvalues --    7.43748   7.59122   9.92629  11.22464  11.75861
  Beta virt. eigenvalues --   12.08006  12.86180
          Condensed to atoms (all electrons):
               1          2          3          4          5          6
     1  O    7.862090  -0.000009   0.000115   0.327444  -0.055662  -0.046104
     2  O   -0.000009   7.876340   0.059822  -0.007546   0.008416  -0.000040
     3  O    0.000115   0.059822   8.076862   0.011553  -0.090333   0.001942
     4  C    0.327444  -0.007546   0.011553   4.707116   0.311318   0.407965
     5  C   -0.055662   0.008416  -0.090333   0.311318   5.359110  -0.054638
     6  H   -0.046104  -0.000040   0.001942   0.407965  -0.054638   0.663188
     7  H   -0.034903   0.008218  -0.005717   0.391374  -0.046794  -0.064248
     8  H    0.002049  -0.030885   0.194418  -0.011100   0.216297   0.003706
     9  H   -0.000570   0.001183   0.000338  -0.033273   0.375532  -0.011323
    10  H    0.004978   0.002550  -0.000941  -0.038691   0.383476   0.009077
    11  H    0.316426  -0.000012   0.000086  -0.039977  -0.003836  -0.012144
    12  H   -0.000085   0.316107  -0.033367  -0.000583  -0.003089  -0.000309
               7          8          9         10         11         12
     1  O   -0.034903   0.002049  -0.000570   0.004978   0.316426  -0.000085
     2  O    0.008218  -0.030885   0.001183   0.002550  -0.000012   0.316107
     3  O   -0.005717   0.194418   0.000338  -0.000941   0.000086  -0.033367
     4  C    0.391374  -0.011100  -0.033273  -0.038691  -0.039977  -0.000583
     5  C   -0.046794   0.216297   0.375532   0.383476  -0.003836  -0.003089
     6  H   -0.064248   0.003706  -0.011323   0.009077  -0.012144  -0.000309
     7  H    0.644983  -0.005799   0.009019  -0.009571   0.010832   0.004586
     8  H   -0.005799   0.403586  -0.008851  -0.006578  -0.000125   0.002288
     9  H    0.009019  -0.008851   0.562746  -0.031374   0.004745   0.000014
    10  H   -0.009571  -0.006578  -0.031374   0.524123  -0.001244  -0.000491
    11  H    0.010832  -0.000125   0.004745  -0.001244   0.482796   0.000008
    12  H    0.004586   0.002288   0.000014  -0.000491   0.000008   0.445711
          Atomic-Atomic Spin Densities.
               1          2          3          4          5          6
     1  O    0.060752   0.000049  -0.000268  -0.002633  -0.022176   0.000499
     2  O    0.000049   0.067418  -0.044413  -0.001039   0.017090  -0.000030
     3  O   -0.000268  -0.044413   0.562924   0.004084  -0.104138   0.000040
     4  C   -0.002633  -0.001039   0.004084  -0.031147  -0.017007   0.002220
     5  C   -0.022176   0.017090  -0.104138  -0.017007   0.735587  -0.002204
     6  H    0.000499  -0.000030   0.000040   0.002220  -0.002204   0.001085
     7  H    0.000042  -0.000764   0.000855   0.002652  -0.001728  -0.000181
     8  H    0.000253   0.008931  -0.032812  -0.000600   0.057893  -0.000220
     9  H   -0.000969  -0.000217   0.001726   0.002496  -0.000673   0.000335
    10  H   -0.001057  -0.001649   0.003197   0.002264  -0.006729  -0.000223
    11  H   -0.001283  -0.000012   0.000069   0.001688   0.002831  -0.000089
    12  H   -0.000002   0.000696  -0.000784   0.000144  -0.000481   0.000016
               7          8          9         10         11         12
     1  O    0.000042   0.000253  -0.000969  -0.001057  -0.001283  -0.000002
     2  O   -0.000764   0.008931  -0.000217  -0.001649  -0.000012   0.000696
     3  O    0.000855  -0.032812   0.001726   0.003197   0.000069  -0.000784
     4  C    0.002652  -0.000600   0.002496   0.002264   0.001688   0.000144
     5  C   -0.001728   0.057893  -0.000673  -0.006729   0.002831  -0.000481
     6  H   -0.000181  -0.000220   0.000335  -0.000223  -0.000089   0.000016
     7  H    0.001987   0.000738  -0.000338   0.000234  -0.000036  -0.000073
     8  H    0.000738  -0.062961   0.001626   0.000470  -0.000154  -0.000064
     9  H   -0.000338   0.001626  -0.039995   0.003510   0.000233   0.000001
    10  H    0.000234   0.000470   0.003510  -0.034711   0.000207  -0.000042
    11  H   -0.000036  -0.000154   0.000233   0.000207  -0.002906   0.000002
    12  H   -0.000073  -0.000064   0.000001  -0.000042   0.000002  -0.002036
 Mulliken charges and spin densities:
               1          2
     1  O   -0.375770   0.033207
     2  O   -0.234145   0.046060
     3  O   -0.214779   0.390479
     4  C   -0.025602  -0.036878
     5  C   -0.399797   0.658265
     6  H    0.102928   0.001248
     7  H    0.098017   0.003388
     8  H    0.240994  -0.026899
     9  H    0.131814  -0.032265
    10  H    0.164686  -0.034531
    11  H    0.242444   0.000550
    12  H    0.269210  -0.002625
 Sum of Mulliken charges =  -0.00000   1.00000
 Mulliken charges and spin densities with hydrogens summed into heavy atoms:
               1          2
     1  O   -0.133326   0.033757
     2  O    0.035065   0.043435
     3  O    0.026215   0.363580
     4  C    0.175343  -0.032241
     5  C   -0.103297   0.591470
 APT charges:
               1
     1  O   -0.660392
     2  O   -0.350507
     3  O   -0.141743
     4  C   -0.488148
     5  C   -0.770553
     6  H    0.309558
     7  H    0.226094
     8  H    0.188929
     9  H    0.396931
    10  H    0.319255
    11  H    0.613685
    12  H    0.356892
 Sum of APT charges =  -0.00000
 APT charges with hydrogens summed into heavy atoms:
               1
     1  O   -0.046707
     2  O    0.006385
     3  O    0.047186
     4  C    0.047504
     5  C   -0.054368
 Electronic spatial extent (au):  <R**2>=            641.5755
 Charge=             -0.0000 electrons
 Dipole moment (field-independent basis, Debye):
    X=             -1.4948    Y=              0.4016    Z=              0.4997  Tot=              1.6264
 Quadrupole moment (field-independent basis, Debye-Ang):
   XX=            -36.3337   YY=            -27.6254   ZZ=            -32.2485
   XY=             -7.3934   XZ=             -1.4757   YZ=             -0.6414
 Traceless Quadrupole moment (field-independent basis, Debye-Ang):
   XX=             -4.2645   YY=              4.4438   ZZ=             -0.1793
   XY=             -7.3934   XZ=             -1.4757   YZ=             -0.6414
 Octapole moment (field-independent basis, Debye-Ang**2):
  XXX=            -14.3528  YYY=             -7.1470  ZZZ=             -0.0525  XYY=              7.7770
  XXY=              7.6418  XXZ=              4.5738  XZZ=              0.3716  YZZ=             -0.6204
  YYZ=              0.2721  XYZ=             -1.0496
 Hexadecapole moment (field-independent basis, Debye-Ang**3):
 XXXX=           -560.1616 YYYY=            -98.3516 ZZZZ=            -69.8760 XXXY=            -44.5119
 XXXZ=             -2.4362 YYYX=            -14.2503 YYYZ=              3.4633 ZZZX=             -1.0715
 ZZZY=              1.9038 XXYY=           -107.1403 XXZZ=           -112.3663 YYZZ=            -31.1813
 XXYZ=             -2.0310 YYXZ=             -0.6563 ZZXY=             -0.7051
 N-N= 1.851476178018D+02 E-N=-1.089466500018D+03  KE= 3.043446456255D+02
  Exact polarizability:   0.000   0.000   0.000   0.000   0.000   0.000
 Approx polarizability:  65.800  -8.151  51.400   3.728   1.852  45.258
                          Isotropic Fermi Contact Couplings
        Atom                 a.u.       MegaHertz       Gauss      10(-4) cm-1
     1  O(17)              0.02034     -12.33277      -4.40064      -4.11377
     2  O(17)              0.00145      -0.87772      -0.31319      -0.29278
     3  O(17)              0.10250     -62.13346     -22.17076     -20.72549
     4  C(13)             -0.01505     -16.92406      -6.03892      -5.64526
     5  C(13)              0.17142     192.70939      68.76350      64.28093
     6  H(1)               0.00029       1.27454       0.45479       0.42514
     7  H(1)               0.00140       6.24242       2.22745       2.08225
     8  H(1)              -0.03279    -146.55183     -52.29334     -48.88443
     9  H(1)              -0.00542     -24.20882      -8.63831      -8.07519
    10  H(1)              -0.00625     -27.94255      -9.97060      -9.32063
    11  H(1)              -0.00080      -3.57042      -1.27401      -1.19096
    12  H(1)              -0.00116      -5.19327      -1.85309      -1.73229
 --------------------------------------------------------
       Center         ----  Spin Dipole Couplings  ----
                      3XX-RR        3YY-RR        3ZZ-RR
 --------------------------------------------------------
     1   Atom        0.069296      0.027856     -0.097152
     2   Atom        0.276486     -0.117516     -0.158970
     3   Atom        1.103712     -0.845578     -0.258133
     4   Atom       -0.000059      0.000936     -0.000877
     5   Atom        0.554009     -0.352155     -0.201853
     6   Atom        0.001186     -0.004839      0.003653
     7   Atom       -0.001607      0.009341     -0.007734
     8   Atom        0.138841     -0.067209     -0.071632
     9   Atom       -0.003354      0.037713     -0.034359
    10   Atom       -0.004601     -0.042516      0.047117
    11   Atom        0.010905     -0.001193     -0.009712
    12   Atom       -0.005666      0.019348     -0.013682
 --------------------------------------------------------
                        XY            XZ            YZ
 --------------------------------------------------------
     1   Atom        0.144171     -0.044560     -0.041076
     2   Atom       -0.133399      0.158505     -0.087686
     3   Atom       -0.547568      1.214420     -0.306955
     4   Atom        0.004248     -0.002313     -0.006036
     5   Atom        0.014293      0.369702      0.007748
     6   Atom        0.004014     -0.006856     -0.007829
     7   Atom        0.006509      0.000919     -0.005211
     8   Atom       -0.081685      0.107434     -0.039476
     9   Atom       -0.024059      0.008148      0.022074
    10   Atom       -0.005053     -0.006465      0.015539
    11   Atom       -0.003402     -0.004947      0.001531
    12   Atom        0.000044     -0.000200      0.000516
 --------------------------------------------------------


 ---------------------------------------------------------------------------------
              Anisotropic Spin Dipole Couplings in Principal Axis System
 ---------------------------------------------------------------------------------

       Atom             a.u.   MegaHertz   Gauss  10(-4) cm-1        Axes

              Baa    -0.1095     7.924     2.828     2.643  0.0512  0.2364  0.9703
     1 O(17)  Bbb    -0.0968     7.005     2.500     2.337 -0.6703  0.7283 -0.1421
              Bcc     0.2063   -14.929    -5.327    -4.980  0.7403  0.6431 -0.1958
 
              Baa    -0.2343    16.954     6.050     5.655 -0.1403  0.4870  0.8621
     2 O(17)  Bbb    -0.1421    10.280     3.668     3.429  0.4117  0.8206 -0.3965
              Bcc     0.3764   -27.234    -9.718    -9.084  0.9005 -0.2992  0.3156
 
              Baa    -0.9922    71.791    25.617    23.947  0.3981  0.8684 -0.2956
     3 O(17)  Bbb    -0.9635    69.722    24.878    23.257 -0.3630  0.4451  0.8186
              Bcc     1.9557  -141.513   -50.495   -47.204  0.8424 -0.2186  0.4924
 
              Baa    -0.0063    -0.846    -0.302    -0.282 -0.2223  0.6978  0.6809
     4 C(13)  Bbb    -0.0024    -0.322    -0.115    -0.107  0.8500 -0.2033  0.4859
              Bcc     0.0087     1.168     0.417     0.390  0.4775  0.6868 -0.5480
 
              Baa    -0.3543   -47.542   -16.964   -15.858  0.2650  0.6860 -0.6776
     5 C(13)  Bbb    -0.3507   -47.064   -16.794   -15.699 -0.2694  0.7274  0.6311
              Bcc     0.7050    94.606    33.758    31.557  0.9259  0.0153  0.3776
 
              Baa    -0.0095    -5.069    -1.809    -1.691  0.0081  0.8574  0.5146
     6 H(1)   Bbb    -0.0040    -2.111    -0.753    -0.704  0.8394 -0.2855  0.4625
              Bcc     0.0135     7.180     2.562     2.395 -0.5434 -0.4282  0.7220
 
              Baa    -0.0102    -5.451    -1.945    -1.818 -0.3568  0.3496  0.8663
     7 H(1)   Bbb    -0.0031    -1.640    -0.585    -0.547  0.8529 -0.2563  0.4547
              Bcc     0.0133     7.090     2.530     2.365  0.3810  0.9012 -0.2067
 
              Baa    -0.1177   -62.825   -22.418   -20.956 -0.3240  0.1988  0.9249
     8 H(1)   Bbb    -0.0955   -50.963   -18.185   -17.000  0.3585  0.9306 -0.0745
              Bcc     0.2133   113.788    40.603    37.956  0.8755 -0.3074  0.3728
 
              Baa    -0.0460   -24.567    -8.766    -8.195 -0.3540 -0.3321  0.8743
     9 H(1)   Bbb    -0.0061    -3.268    -1.166    -1.090  0.8610  0.2493  0.4434
              Bcc     0.0522    27.834     9.932     9.285 -0.3652  0.9097  0.1977
 
              Baa    -0.0455   -24.283    -8.665    -8.100  0.0964  0.9827 -0.1581
    10 H(1)   Bbb    -0.0052    -2.757    -0.984    -0.920  0.9868 -0.0736  0.1439
              Bcc     0.0507    27.040     9.648     9.019 -0.1298  0.1699  0.9769
 
              Baa    -0.0109    -5.814    -2.075    -1.939  0.2086 -0.0806  0.9747
    11 H(1)   Bbb    -0.0021    -1.109    -0.396    -0.370  0.2618  0.9648  0.0238
              Bcc     0.0130     6.923     2.470     2.309  0.9423 -0.2503 -0.2223
 
              Baa    -0.0137    -7.307    -2.607    -2.437  0.0250 -0.0156  0.9996
    12 H(1)   Bbb    -0.0057    -3.020    -1.078    -1.008  0.9997 -0.0012 -0.0250
              Bcc     0.0194    10.327     3.685     3.445  0.0016  0.9999  0.0156
 

 ---------------------------------------------------------------------------------

 No NMR shielding tensors so no spin-rotation constants.
 Leave Link  601 at Sat Jun 22 13:22:14 2019, MaxMem=   671088640 cpu:              42.3 elap:               2.5
 (Enter /shared/centos7/gaussian/g16/l701.exe)
 SCFChk:  SCF convergence  2.41D-09 required  1.00D-08
 ... and contract with generalized density number  0.
 Compute integral second derivatives.
 Entering OneElI...
 Calculate overlap and kinetic energy integrals
    NBasis = 280  MinDer = 2  MaxDer = 2
 Requested accuracy = 0.1000D-12
 PrmmSu-InSpLW:  IPartL=    0 NPrtUS=   20 NPrtUL=    1 DoSpLW=F IThBeg=    0 IThEnd=   19 NThAct=   20.
 PrsmSu:  NPrtUS=  20 ThrOK=T IAlg=1 NPAlg=1 LenDen=           0 ISkipM=0 DoSpLW=F IThBeg=    0 IThEnd=   19.
 Prism:   IPart=     0 DynPar=F LinDyn=F Incr=           2.
 PRISM was handed    33430152 working-precision words and  4250 shell-pairs
 PRISM was handed    33430152 working-precision words and  4250 shell-pairs
 PRISM was handed    33430152 working-precision words and  4250 shell-pairs
 PRISM was handed    33430152 working-precision words and  4250 shell-pairs
 PRISM was handed    33430152 working-precision words and  4250 shell-pairs
 PRISM was handed    33430152 working-precision words and  4250 shell-pairs
 PRISM was handed    33430152 working-precision words and  4250 shell-pairs
 PRISM was handed    33430152 working-precision words and  4250 shell-pairs
 PRISM was handed    33430152 working-precision words and  4250 shell-pairs
 PRISM was handed    33430152 working-precision words and  4250 shell-pairs
 PRISM was handed    33430152 working-precision words and  4250 shell-pairs
 PRISM was handed    33430152 working-precision words and  4250 shell-pairs
 PRISM was handed    33430152 working-precision words and  4250 shell-pairs
 PRISM was handed    33430152 working-precision words and  4250 shell-pairs
 PRISM was handed    33430152 working-precision words and  4250 shell-pairs
 PRISM was handed    33430152 working-precision words and  4250 shell-pairs
 PRISM was handed    33430152 working-precision words and  4250 shell-pairs
 PRISM was handed    33430152 working-precision words and  4250 shell-pairs
 PRISM was handed    33430152 working-precision words and  4250 shell-pairs
 PRISM was handed    33430152 working-precision words and  4250 shell-pairs
 IPart= 10 NShTot=         206 NBatch=          31 AvBLen=         6.6
 IPart=  0 NShTot=         258 NBatch=          69 AvBLen=         3.7
 IPart=  5 NShTot=         220 NBatch=          41 AvBLen=         5.4
 IPart=  9 NShTot=         208 NBatch=          32 AvBLen=         6.5
 IPart= 14 NShTot=         198 NBatch=          27 AvBLen=         7.3
 IPart=  2 NShTot=         236 NBatch=          51 AvBLen=         4.6
 IPart= 11 NShTot=         204 NBatch=          30 AvBLen=         6.8
 IPart= 15 NShTot=         197 NBatch=          26 AvBLen=         7.6
 IPart=  6 NShTot=         213 NBatch=          36 AvBLen=         5.9
 IPart=  3 NShTot=         232 NBatch=          48 AvBLen=         4.8
 IPart= 19 NShTot=         192 NBatch=          26 AvBLen=         7.4
 IPart= 17 NShTot=         196 NBatch=          26 AvBLen=         7.5
 IPart=  1 NShTot=         247 NBatch=          61 AvBLen=         4.0
 IPart=  7 NShTot=         212 NBatch=          35 AvBLen=         6.1
 IPart= 16 NShTot=         197 NBatch=          26 AvBLen=         7.6
 IPart= 18 NShTot=         194 NBatch=          26 AvBLen=         7.5
 IPart=  8 NShTot=         211 NBatch=          34 AvBLen=         6.2
 IPart= 13 NShTot=         199 NBatch=          27 AvBLen=         7.4
 IPart=  4 NShTot=         229 NBatch=          46 AvBLen=         5.0
 IPart= 12 NShTot=         201 NBatch=          28 AvBLen=         7.2
 PrSmSu:  NxtVal=             41.
 Entering OneElI...
 Calculate potential energy integrals
    NBasis = 280  MinDer = 2  MaxDer = 2
 Requested accuracy = 0.1000D-12
 PrmmSu-InSpLW:  IPartL=    0 NPrtUS=   20 NPrtUL=    1 DoSpLW=F IThBeg=    0 IThEnd=   19 NThAct=   20.
 PrsmSu:  NPrtUS=  20 ThrOK=T IAlg=1 NPAlg=1 LenDen=           0 ISkipM=0 DoSpLW=F IThBeg=    0 IThEnd=   19.
 Prism:   IPart=     0 DynPar=F LinDyn=F Incr=          24.
 PRISM was handed    33449009 working-precision words and  4009 shell-pairs
 PRISM was handed    33449009 working-precision words and  4009 shell-pairs
 PRISM was handed    33449009 working-precision words and  4009 shell-pairs
 PRISM was handed    33449009 working-precision words and  4009 shell-pairs
 PRISM was handed    33449009 working-precision words and  4009 shell-pairs
 PRISM was handed    33449009 working-precision words and  4009 shell-pairs
 PRISM was handed    33449009 working-precision words and  4009 shell-pairs
 PRISM was handed    33449009 working-precision words and  4009 shell-pairs
 PRISM was handed    33449009 working-precision words and  4009 shell-pairs
 PRISM was handed    33449009 working-precision words and  4009 shell-pairs
 PRISM was handed    33449009 working-precision words and  4009 shell-pairs
 PRISM was handed    33449009 working-precision words and  4009 shell-pairs
 PRISM was handed    33449009 working-precision words and  4009 shell-pairs
 PRISM was handed    33449009 working-precision words and  4009 shell-pairs
 PRISM was handed    33449009 working-precision words and  4009 shell-pairs
 PRISM was handed    33449009 working-precision words and  4009 shell-pairs
 PRISM was handed    33449009 working-precision words and  4009 shell-pairs
 PRISM was handed    33449009 working-precision words and  4009 shell-pairs
 PRISM was handed    33449009 working-precision words and  4009 shell-pairs
 PRISM was handed    33449009 working-precision words and  4009 shell-pairs
 IPart= 19 NShTot=        2148 NBatch=         179 AvBLen=        12.0
 IPart= 16 NShTot=        2220 NBatch=         185 AvBLen=        12.0
 IPart=  7 NShTot=        2412 NBatch=         201 AvBLen=        12.0
 IPart= 18 NShTot=        2160 NBatch=         180 AvBLen=        12.0
 IPart= 10 NShTot=        2352 NBatch=         196 AvBLen=        12.0
 IPart= 17 NShTot=        2220 NBatch=         185 AvBLen=        12.0
 IPart=  8 NShTot=        2400 NBatch=         200 AvBLen=        12.0
 IPart= 14 NShTot=        2256 NBatch=         188 AvBLen=        12.0
 IPart= 15 NShTot=        2244 NBatch=         187 AvBLen=        12.0
 IPart=  5 NShTot=        2448 NBatch=         204 AvBLen=        12.0
 IPart=  6 NShTot=        2436 NBatch=         203 AvBLen=        12.0
 IPart=  9 NShTot=        2364 NBatch=         197 AvBLen=        12.0
 IPart= 11 NShTot=        2316 NBatch=         193 AvBLen=        12.0
 IPart= 13 NShTot=        2268 NBatch=         189 AvBLen=        12.0
 IPart=  1 NShTot=        2784 NBatch=         232 AvBLen=        12.0
 IPart=  4 NShTot=        2568 NBatch=         214 AvBLen=        12.0
 IPart= 12 NShTot=        2292 NBatch=         191 AvBLen=        12.0
 IPart=  2 NShTot=        2688 NBatch=         224 AvBLen=        12.0
 IPart=  0 NShTot=        2916 NBatch=         243 AvBLen=        12.0
 IPart=  3 NShTot=        2616 NBatch=         218 AvBLen=        12.0
 PrSmSu:  NxtVal=            481.
 Polarizability after L701:
                1             2             3 
      1  0.000000D+00
      2  0.000000D+00  0.000000D+00
      3  0.000000D+00  0.000000D+00  0.000000D+00
 Dipole Derivatives after L701:
                 1             2             3             4             5 
      1  -0.109544D+01  0.126078D+01  0.137209D+00  0.699783D-01  0.956155D+00
      2   0.255457D+00 -0.518372D+00 -0.111868D-01 -0.300615D+00 -0.890444D+00
      3   0.625560D-01 -0.117525D-01 -0.367365D+00 -0.288027D-01 -0.507982D-02
                 6             7             8             9            10 
      1  -0.334742D-01  0.783975D-01 -0.290004D+00 -0.109049D+00 -0.257029D+00
      2   0.221453D+00  0.124244D+00 -0.279786D+00  0.740865D-01  0.806791D-01
      3  -0.231055D+00  0.594105D-01 -0.367970D-01 -0.223840D+00 -0.116597D+00
                11            12            13            14            15 
      1  -0.346289D+00  0.361943D+00 -0.374920D+00  0.273081D+00 -0.152848D-01
      2  -0.512816D+00 -0.126015D+00  0.283331D-01 -0.106187D+01  0.677783D-01
      3  -0.443648D-01 -0.694599D+00  0.182010D+00 -0.111576D+00 -0.874871D+00
                16            17            18            19            20 
      1   0.169509D+00 -0.361630D-01 -0.391749D+00  0.241784D-01  0.190926D+00
      2  -0.831639D-02  0.137536D+00  0.273170D-01 -0.186913D+00  0.510893D+00
      3  -0.400913D-01  0.751646D-01  0.621629D+00  0.700750D-01 -0.137806D-01
                21            22            23            24            25 
      1   0.230737D-01  0.566477D-01  0.985478D-01 -0.120892D+00  0.197134D+00
      2   0.613883D-01  0.505588D-01  0.335186D+00 -0.286772D-01 -0.258647D+00
      3   0.143211D+00 -0.721052D-01  0.304347D-01  0.174954D+00 -0.270703D-02
                26            27            28            29            30 
      1  -0.324559D+00 -0.813289D-01  0.791866D-01  0.984062D-02  0.988515D-01
      2   0.867407D+00  0.160080D+00  0.543854D-01  0.117169D+00 -0.264887D+00
      3  -0.429102D-01  0.126251D+00 -0.121370D+00  0.106961D+00  0.761408D+00
                31            32            33            34            35 
      1   0.116083D+01 -0.104923D+01 -0.121539D+00 -0.108477D+00 -0.743093D+00
      2  -0.105589D+00  0.408713D+00  0.449211D-01  0.266423D+00  0.886384D+00
      3  -0.179707D-02  0.321849D-01  0.271509D+00  0.941873D-02  0.215161D-01
                36 
      1   0.252239D+00
      2  -0.226259D+00
      3   0.292769D+00
 Hessian after L701:
                1             2             3             4             5 
      1  0.385594D+01
      2  0.386969D+00  0.976542D+01
      3 -0.180901D+01 -0.738845D+00  0.123788D+02
      4  0.207816D+00  0.752409D-02 -0.217206D-01  0.972551D+01
      5  0.335890D-01 -0.103727D+00 -0.250532D-03  0.697659D+00  0.496680D+01
      6 -0.182853D-01  0.625160D-02 -0.104656D+00  0.267823D+01 -0.316520D+01
      7  0.221580D+00  0.969082D-01  0.616434D-01 -0.548533D+01 -0.159173D+01
      8  0.578721D-01 -0.124049D+00  0.123983D-01 -0.165056D+01 -0.207841D+01
      9  0.570107D-01  0.962304D-02 -0.113708D+00 -0.202164D+01  0.420181D+01
     10 -0.298139D+00  0.128765D+01  0.254587D+01  0.306658D+00 -0.291261D-02
     11  0.127305D+01 -0.693279D+01  0.412714D+00 -0.129189D+00 -0.197212D+00
     12  0.251397D+01  0.410302D+00 -0.646742D+01 -0.680957D-01  0.100191D-01
     13  0.127460D+00  0.498653D+00 -0.228115D+00  0.433109D+00 -0.374890D+00
     14  0.399996D+00  0.173591D+00 -0.117069D+00 -0.372072D+00 -0.184123D+00
     15 -0.151399D+00 -0.852983D-01 -0.171353D+00 -0.472983D-01 -0.727150D-02
     16 -0.204793D+00 -0.702298D-01 -0.122060D+00  0.247214D-01 -0.354515D-02
     17 -0.787249D-01  0.113412D+00  0.177283D-01 -0.774062D-02 -0.186827D-01
     18 -0.151677D+00  0.342649D-01  0.379675D+00 -0.487058D-01 -0.189420D-03
     19 -0.201645D+00 -0.984159D-01 -0.199144D+00  0.705920D-01  0.426462D-01
     20 -0.155322D+00  0.195357D+00  0.486354D-01  0.949581D-01 -0.437175D-01
     21 -0.206778D+00  0.458229D-01 -0.217022D-01 -0.592815D-01 -0.124221D-01
     22  0.700849D-01  0.401037D-01  0.237123D-01  0.125943D+00  0.660408D-01
     23  0.429446D-01 -0.917197D-02  0.885892D-02  0.529138D-01 -0.114249D+00
     24  0.136651D-01  0.571868D-02 -0.260536D-01  0.934458D-01 -0.128209D+00
     25 -0.197318D-01  0.374496D-01 -0.144039D-01  0.288426D-01 -0.376685D-01
     26  0.586488D-01  0.803066D-01 -0.209979D-01 -0.633967D-01  0.226150D-01
     27 -0.750759D-02 -0.401667D-02 -0.399175D-01 -0.113628D-01  0.109179D-01
     28  0.628246D-01  0.879810D-01 -0.512780D-01  0.424775D-01 -0.423489D-01
     29  0.628813D-01 -0.215893D-01 -0.231144D-01 -0.437777D-01 -0.281255D-01
     30 -0.857586D-01 -0.681122D-01 -0.155021D-01  0.874798D-01 -0.309547D-01
     31 -0.382817D+01 -0.226882D+01 -0.185216D+00  0.282055D-01  0.201716D-03
     32 -0.205263D+01 -0.312761D+01  0.400143D+00 -0.201707D-01 -0.911426D-02
     33 -0.163735D+00  0.384344D+00 -0.578777D+01 -0.367710D-02  0.711426D-03
     34  0.677672D-02 -0.577668D-02 -0.284720D-03 -0.550855D+01  0.121296D+01
     35 -0.292689D-01 -0.914896D-02 -0.202451D-03  0.143385D+01 -0.221205D+01
     36  0.949747D-02 -0.561085D-04 -0.104114D-01 -0.577374D+00 -0.878964D+00
                6             7             8             9            10 
      6  0.780385D+01
      7 -0.200688D+01  0.525225D+01
      8  0.429150D+01  0.290387D+01  0.476183D+01
      9 -0.165267D+01  0.658688D+00 -0.348435D+01  0.496994D+01
     10 -0.108252D+00  0.577113D+00  0.189968D+00  0.644000D-01  0.109849D+02
     11  0.277526D-01  0.175095D+00 -0.326583D+00  0.218562D-01 -0.194528D+01
     12 -0.154761D+00  0.119234D+00  0.122286D-01 -0.361671D+00 -0.155979D+01
     13 -0.143349D-01  0.130647D+00 -0.201168D+00  0.134124D+00 -0.439587D+01
     14 -0.295652D-01 -0.795623D-01 -0.552125D-01 -0.155716D-01  0.187908D+01
     15 -0.352535D+00  0.620141D-01 -0.594992D-01 -0.125552D+00 -0.116553D+01
     16 -0.270608D-01  0.737214D-01  0.760877D-02 -0.353810D-01 -0.392201D+01
     17  0.690811D-02  0.873828D-02 -0.433736D-01 -0.483027D-03 -0.904996D-02
     18  0.100592D-01 -0.791541D-01 -0.109917D-02 -0.179393D-01  0.234298D+00
     19 -0.557295D-01 -0.117891D-01  0.282454D-01 -0.181623D-01 -0.339319D+01
     20 -0.245502D-01  0.767937D-01  0.257620D-01 -0.463548D-02 -0.130541D+01
     21 -0.562091D-01 -0.140139D-01 -0.526819D-02 -0.332345D-01 -0.526738D-01
     22  0.103953D+00 -0.959264D+00 -0.144042D+01  0.101251D+01 -0.357329D-01
     23 -0.138578D+00 -0.160595D+01 -0.227441D+01 -0.570020D+00  0.236829D-01
     24  0.534888D-01  0.105371D+01 -0.522450D+00 -0.269667D+01 -0.146438D-01
     25 -0.798077D-02  0.638942D-01 -0.650734D-01  0.267302D-01  0.520230D-01
     26  0.135511D-01 -0.770393D-01  0.154678D-01 -0.209961D-01 -0.262255D-01
     27 -0.179592D-01  0.240801D-01 -0.137320D-01 -0.289044D-01 -0.670929D-02
     28  0.342692D-01  0.157811D-01 -0.204831D-01  0.545792D-01  0.590444D-01
     29 -0.129415D-01 -0.432473D-02 -0.373207D-01 -0.598457D-02 -0.429998D-01
     30 -0.143827D-01  0.976623D-01 -0.269999D-01  0.680328D-01  0.416599D-01
     31 -0.455899D-02  0.373128D-01 -0.110751D-02  0.605483D-02  0.592953D-01
     32  0.235966D-02 -0.205115D-01 -0.645192D-02 -0.904960D-03  0.506372D-02
     33 -0.582229D-02  0.983955D-03  0.413736D-03 -0.896367D-02  0.925284D-02
     34 -0.573369D+00  0.840775D-01  0.191241D+00  0.610914D-01  0.593302D-02
     35 -0.977492D+00  0.117710D+00  0.142754D+00 -0.130341D+00 -0.535670D-01
     36 -0.550840D+01  0.220362D-01 -0.203141D+00  0.133910D-02  0.121155D-01
               11            12            13            14            15 
     11  0.166350D+02
     12  0.399964D+00  0.171101D+02
     13  0.175230D+01 -0.109587D+01  0.106682D+02
     14 -0.314436D+01 -0.156266D+01 -0.900999D+00  0.106022D+02
     15 -0.156037D+01 -0.472579D+01  0.100478D+01  0.877434D+00  0.122084D+02
     16 -0.211254D-01  0.114371D+00  0.694444D-01 -0.496129D-01  0.145454D+00
     17 -0.391768D+01  0.355651D+00 -0.391715D-01  0.103429D+00  0.116414D+00
     18  0.405856D+00 -0.136828D+01  0.131387D+00  0.118004D+00 -0.132397D+00
     19 -0.117541D+01 -0.893401D-01  0.110258D+00 -0.670255D-01  0.355368D-02
[...]
    D3       -3.13161  -0.00000   0.00000  -0.00004  -0.00004  -3.13165
    D4       -1.73653   0.00001   0.00000   0.00004   0.00004  -1.73649
    D5        0.54940   0.00000   0.00000   0.00951   0.00951   0.55890
    D6       -3.02447  -0.00000   0.00000  -0.00023  -0.00023  -3.02470
    D7        1.31051  -0.00000   0.00000  -0.00026  -0.00026   1.31025
    D8       -1.06942  -0.00000   0.00000  -0.00024  -0.00024  -1.06966
    D9        1.09829   0.00000   0.00000  -0.00021  -0.00021   1.09808
   D10       -0.84992  -0.00000   0.00000  -0.00023  -0.00023  -0.85015
   D11        3.05333  -0.00000   0.00000  -0.00021  -0.00021   3.05312
   D12       -0.97949   0.00000   0.00000  -0.00016  -0.00016  -0.97965
   D13       -2.92770   0.00000   0.00000  -0.00018  -0.00018  -2.92788
   D14        0.97555   0.00000   0.00000  -0.00016  -0.00016   0.97539
   D15        0.09197   0.00000   0.00000  -0.00869  -0.00869   0.08328
   D16        2.21110  -0.00000   0.00000  -0.00874  -0.00874   2.20236
   D17       -2.01184  -0.00000   0.00000  -0.00873  -0.00873  -2.02057
         Item               Value     Threshold  Converged?
 Maximum Force            0.000018     0.000450     YES
 RMS     Force            0.000004     0.000300     YES
 Maximum Displacement     0.001528     0.001800     YES
 RMS     Displacement     0.000445     0.001200     YES
 Predicted change in Energy=-1.743989D-08
 Optimization completed.
    -- Stationary point found.
                           ----------------------------
                           !   Optimized Parameters   !
                           ! (Angstroms and Degrees)  !
 --------------------------                            --------------------------
 ! Name  Definition              Value          Derivative Info.                !
 --------------------------------------------------------------------------------
 ! R1    R(1,4)                  1.4208         -DE/DX =    0.0                 !
 ! R2    R(1,11)                 0.9606         -DE/DX =    0.0                 !
 ! R3    R(2,3)                  1.3883         -DE/DX =    0.0                 !
 ! R4    R(2,12)                 0.9654         -DE/DX =    0.0                 !
 ! R5    R(3,8)                  1.16           -DE/DX =    0.0                 !
 ! R6    R(4,5)                  1.5016         -DE/DX =    0.0                 !
 ! R7    R(4,6)                  1.0947         -DE/DX =    0.0                 !
 ! R8    R(4,7)                  1.0887         -DE/DX =    0.0                 !
 ! R9    R(5,8)                  1.3541         -DE/DX =    0.0                 !
 ! R10   R(5,9)                  1.0879         -DE/DX =    0.0                 !
 ! R11   R(5,10)                 1.086          -DE/DX =    0.0                 !
 ! A1    A(4,1,11)             108.5226         -DE/DX =    0.0                 !
 ! A2    A(3,2,12)             103.0491         -DE/DX =    0.0                 !
 ! A3    A(2,3,8)              104.1827         -DE/DX =    0.0                 !
 ! A4    A(1,4,5)              111.6216         -DE/DX =    0.0                 !
 ! A5    A(1,4,6)              110.8818         -DE/DX =    0.0                 !
 ! A6    A(1,4,7)              105.7997         -DE/DX =    0.0                 !
 ! A7    A(5,4,6)              110.3593         -DE/DX =    0.0                 !
 ! A8    A(5,4,7)              110.0676         -DE/DX =    0.0                 !
 ! A9    A(6,4,7)              107.9507         -DE/DX =    0.0                 !
 ! A10   A(4,5,8)              104.4568         -DE/DX =    0.0                 !
 ! A11   A(4,5,9)              116.1692         -DE/DX =    0.0                 !
 ! A12   A(4,5,10)             115.0886         -DE/DX =    0.0                 !
 ! A13   A(8,5,9)              102.1321         -DE/DX =    0.0                 !
 ! A14   A(8,5,10)             102.8788         -DE/DX =    0.0                 !
 ! A15   A(9,5,10)             113.655          -DE/DX =    0.0                 !
 ! A16   A(3,8,5)              173.2305         -DE/DX =    0.0                 !
 ! D1    D(11,1,4,5)           -59.7089         -DE/DX =    0.0                 !
 ! D2    D(11,1,4,6)            63.779          -DE/DX =    0.0                 !
 ! D3    D(11,1,4,7)          -179.4281         -DE/DX =    0.0                 !
 ! D4    D(12,2,3,8)           -99.496          -DE/DX =    0.0                 !
 ! D5    D(2,3,8,5)             31.4781         -DE/DX =    0.0                 !
 ! D6    D(1,4,5,8)           -173.2893         -DE/DX =    0.0                 !
 ! D7    D(1,4,5,9)             75.0867         -DE/DX =    0.0                 !
 ! D8    D(1,4,5,10)           -61.2735         -DE/DX =    0.0                 !
 ! D9    D(6,4,5,8)             62.9273         -DE/DX =    0.0                 !
 ! D10   D(6,4,5,9)            -48.6967         -DE/DX =    0.0                 !
 ! D11   D(6,4,5,10)           174.9431         -DE/DX =    0.0                 !
 ! D12   D(7,4,5,8)            -56.1208         -DE/DX =    0.0                 !
 ! D13   D(7,4,5,9)           -167.7448         -DE/DX =    0.0                 !
 ! D14   D(7,4,5,10)            55.895          -DE/DX =    0.0                 !
 ! D15   D(4,5,8,3)              5.2693         -DE/DX =    0.0                 !
 ! D16   D(9,5,8,3)            126.6868         -DE/DX =    0.0                 !
 ! D17   D(10,5,8,3)          -115.2702         -DE/DX =    0.0                 !
 --------------------------------------------------------------------------------
 GradGradGradGradGradGradGradGradGradGradGradGradGradGradGradGradGradGrad

 Leave Link  103 at Sat Jun 22 13:46:37 2019, MaxMem=   671088640 cpu:              33.6 elap:               1.9
 (Enter /shared/centos7/gaussian/g16/l9999.exe)

 ----------------------------------------------------------------------

 Electric dipole moment (input orientation):
 (Debye = 10**-18 statcoulomb cm , SI units = C m)
                  (au)            (Debye)         (10**-30 SI)
   Tot        0.916164D+00      0.232866D+01      0.776756D+01
   x          0.429568D+00      0.109185D+01      0.364203D+01
   y          0.264859D+00      0.673205D+00      0.224557D+01
   z         -0.764642D+00     -0.194353D+01     -0.648291D+01

 Dipole polarizability, Alpha (input orientation).
 (esu units = cm**3 , SI units = C**2 m**2 J**-1)
 Alpha(0;0):
               (au)            (10**-24 esu)      (10**-40 SI)
   iso        0.506153D+02      0.750041D+01      0.834533D+01
   aniso      0.352088D+02      0.521741D+01      0.580515D+01
   xx         0.708634D+02      0.105009D+02      0.116838D+02
   yx         0.834038D+01      0.123592D+01      0.137514D+01
   yy         0.451844D+02      0.669564D+01      0.744990D+01
   zx         0.294182D+01      0.435932D+00      0.485040D+00
   zy         0.234264D+01      0.347144D+00      0.386250D+00
   zz         0.357980D+02      0.530471D+01      0.590229D+01

 ----------------------------------------------------------------------

 Dipole orientation:
     8          4.27541545          0.98469199          1.84837776
     8         -3.15187963          1.14144065         -2.48053630
     8         -3.36216627         -1.22449155         -1.36641717
     6          1.70387136          0.79943887          1.09907309
     6          1.03514898         -1.83992588          0.30016103
     1          0.44668951          1.43289370          2.61488787
     1          1.48772531          2.09294621         -0.48607343
     1         -1.34604052         -1.64600156         -0.61623499
     1          0.80574398         -3.21410598          1.81185870
     1          2.08804700         -2.55491334         -1.30978529
     1          4.55327092         -0.14635192          3.24064383
     1         -3.81327795          2.25994449         -1.20008592

 Electric dipole moment (dipole orientation):
 (Debye = 10**-18 statcoulomb cm , SI units = C m)
                  (au)            (Debye)         (10**-30 SI)
   Tot        0.916164D+00      0.232866D+01      0.776756D+01
   x          0.000000D+00      0.000000D+00      0.000000D+00
   y          0.000000D+00      0.000000D+00      0.000000D+00
   z          0.916164D+00      0.232866D+01      0.776756D+01

 Dipole polarizability, Alpha (dipole orientation).
 (esu units = cm**3 , SI units = C**2 m**2 J**-1)
 Alpha(0;0):
               (au)            (10**-24 esu)      (10**-40 SI)
   iso        0.506153D+02      0.750041D+01      0.834533D+01
   aniso      0.352088D+02      0.521741D+01      0.580515D+01
   xx         0.641953D+02      0.951276D+01      0.105844D+02
   yx        -0.575475D+01     -0.852767D+00     -0.948831D+00
   yy         0.445309D+02      0.659880D+01      0.734216D+01
   zx         0.150517D+02      0.223043D+01      0.248168D+01
   zy        -0.383934D+01     -0.568932D+00     -0.633022D+00
   zz         0.431196D+02      0.638966D+01      0.710946D+01

 ----------------------------------------------------------------------

 Test job not archived.
 1\1\GINC-C0183\Freq\UM062X\CC-pVTZ\C2H7O3(2)\HARMS.N\22-Jun-2019\0\\#P
  Geom=AllCheck Guess=TCheck SCRF=Check Test GenChk UM062X/CC-pVTZ Freq
 \\Gaussian input prepared by ASE\\0,2\O,2.4884553431,-0.381729494,0.09
 38184007\O,-2.0388740677,-0.8327548272,0.1388875185\O,-1.9528882163,0.
 5408704908,-0.0434007211\C,1.0975607414,-0.3022516933,-0.1849527272\C,
 0.4846737846,0.9347390147,0.4057487173\H,0.912878476,-0.3411433911,-1.
 2632626721\H,0.6541568794,-1.1896134648,0.2636254333\H,-0.8441936414,0
 .7897008679,0.1899976442\H,0.6991774014,1.8690300414,-0.1085981461\H,0
 .547664229,1.0083970363,1.4874190862\H,2.9190960782,0.3916566593,-0.27
 91154446\H,-1.9854950076,-1.17593124,-0.7618510891\\Version=EM64L-G16R
 evA.03\State=2-A\HF=-305.8944022\S2=0.76042\S2-1=0.\S2A=0.750055\RMSD=
 2.429e-09\RMSF=6.367e-06\ZeroPoint=0.0910591\Thermal=0.0985374\Dipole=
 0.4295677,0.2648594,-0.7646423\DipoleDeriv=-1.1359049,0.0899706,-0.048
 1682,0.2815466,-0.324542,-0.1072386,0.0635197,-0.1010688,-0.4532342,-0
 .3133849,0.0428084,-0.016296,-0.8871225,-0.6130139,-0.0765242,0.009975
 9,-0.0339582,-0.1089096,0.4584288,0.1979987,0.1023978,1.1104721,0.3127
 38,0.0966842,0.0211241,0.0401056,-0.2435571,0.606967,-0.0895234,0.0609
 856,-0.4152168,0.2070475,0.0390612,-0.1420667,0.0392811,0.3346201,0.88
 24927,0.29422,0.1130543,0.1690421,0.0293788,-0.0499207,0.2362978,-0.02
 06566,0.0722566,-0.0287245,0.0028339,-0.031417,0.0284878,0.0303363,-0.
 0128471,-0.0375366,-0.0313448,-0.1710748,0.0153456,-0.0304699,0.009271
 1,-0.0117734,-0.0422297,0.0273239,0.0148244,0.0404586,0.0311941,-1.096
 9415,-0.370513,-0.1670202,-0.327802,0.0116031,-0.0343617,-0.2748216,-0
 .0671813,0.1110602,-0.0691887,-0.1015015,0.0154927,0.0231874,-0.056988
 2,0.0332579,0.005217,0.0453531,0.0114371,-0.0305252,-0.0558033,-0.0524
 155,0.0176363,0.0238999,-0.0046088,0.0308735,-0.0249497,-0.0515054,0.3
 685542,0.0070233,-0.0168479,-0.0235796,0.1735814,0.0770942,-0.0469478,
 0.0729154,0.2789587,0.3428815,0.0129562,0.0309633,0.0351222,0.2481888,
 0.0120798,0.1195403,0.0410456,0.1887542\Polar=70.8633946,8.3403838,45.
 1844101,2.9418179,2.3426436,35.7979599\Quadrupole=-3.5261825,1.8090039
 ,1.7171786,4.9201305,0.4607387,1.4083687\PG=C01 [X(C2H7O3)]\NImag=1\\0
 .44592976,0.16265013,0.42932743,-0.02492065,-0.19207895,0.15426198,-0.
 00125460,-0.00171249,-0.00032303,0.03631209,-0.00450071,0.00701117,0.0
 0249434,0.03302264,0.39367967,0.00034877,-0.00014703,-0.00002703,-0.03
 173210,0.11107235,0.52997051,0.00137143,-0.00263821,-0.00158687,-0.034
 42227,0.00625079,-0.00698921,0.10322151,0.00491384,-0.00822649,-0.0032
 8797,-0.01022214,-0.28339357,0.00343433,-0.03371397,0.33382975,-0.0003
 7345,0.00031984,0.00026193,-0.00587904,0.05261097,-0.05070124,0.028996
 55,-0.02201205,0.04615471,-0.22844807,-0.01250807,-0.02300180,0.001674
 37,-0.00409771,0.00018788,0.00767817,0.00806172,0.00142875,0.45887691,
 0.01349539,-0.07811771,0.01933446,0.00284833,-0.01123472,0.00033040,0.
 00307459,0.01384723,-0.00042253,0.05439635,0.56058786,-0.05120272,0.01
 546374,-0.07790110,-0.00006291,-0.00510759,0.00012153,0.00268173,0.007
 09000,-0.00044145,-0.01098383,-0.04553634,0.59401744,-0.03635033,0.029
 23210,0.00620310,-0.00450506,0.03943436,-0.00315027,-0.13866204,-0.073
 21505,-0.02241638,-0.06196761,0.03989000,0.02875745,0.17939329,0.01374
 193,-0.00354281,-0.00033272,-0.00161516,0.00404962,-0.00029750,-0.0126
 6864,-0.00497848,-0.00249954,0.04685280,-0.18038902,-0.04556830,-0.015
 57654,0.53348088,0.00088666,0.00315564,0.00737034,0.00188475,0.0087267
 3,-0.00011713,-0.02459985,-0.01416907,-0.00135182,0.02912578,-0.043509
 73,-0.11357941,-0.04810453,-0.03829329,0.57814876,-0.02513778,0.000662
 90,-0.03943393,0.00013996,-0.00021075,-0.00005072,0.00016056,-0.000059
 67,-0.00055244,-0.05110357,-0.00491167,-0.02578351,0.00302426,0.000617
 75,0.01415888,0.06773288,0.00071868,0.00376726,0.00168730,0.00007522,0
 .00042709,-0.00018983,-0.00010577,-0.00042009,0.00037935,-0.00272638,-
 0.05600375,-0.00349641,-0.00154788,-0.00156090,-0.03086883,-0.00118067
 ,0.05401860,-0.01053372,-0.00045180,-0.00049581,-0.00016384,0.00127593
 ,0.00017025,-0.00042958,-0.00141841,0.00040354,-0.02958800,-0.00527774
 ,-0.29745848,-0.00092622,-0.00056440,-0.01357166,0.04026508,0.00915349
 ,0.32209946,-0.02937469,-0.03229764,0.01377854,-0.00058286,-0.00066408
 ,0.00017867,0.00009796,0.00031749,-0.00004641,-0.08108694,-0.07813307,
 0.04067234,0.00611169,0.01147729,-0.00654308,0.00356790,0.00362813,-0.
 00079818,0.10871881,-0.00079591,0.00389981,-0.00136286,-0.00152407,0.0
 0197665,-0.00013438,-0.00007465,-0.00215060,0.00021985,-0.08820401,-0.
 22966309,0.09274944,-0.00775633,-0.02511964,0.01222126,0.00151845,0.00
 269524,-0.00060576,0.09252814,0.24861061,-0.00528367,-0.00676947,0.005
 99723,0.00095875,-0.00090301,-0.00019538,0.00042622,0.00089140,-0.0000
 5106,0.04706395,0.09557022,-0.10595604,-0.00470502,-0.01203520,0.00778
 987,0.01177351,0.02618288,-0.01276091,-0.04674609,-0.09956131,0.104288
 11,-0.00377387,0.00876658,0.00505317,0.00950881,-0.06591677,0.00756518
 ,0.04446783,0.08960728,-0.00224281,-0.02664550,-0.01073301,-0.00894225
 ,0.11239170,0.01195462,0.02188299,0.00089634,-0.00015186,0.00120337,0.
 00051651,0.00046514,-0.00104365,-0.10236708,0.00122105,-0.00019621,0.0
 0030319,-0.02439540,-0.03425565,-0.00456922,0.04242514,-0.00473368,0.0
 0899968,0.00652553,-0.00256669,-0.00004068,0.03210405,-0.01907007,0.00
 499474,-0.00003926,0.00024602,0.00015540,0.00061628,-0.00031094,-0.000
 09450,-0.03690477,0.06528664,-0.00006855,0.00048448,0.00103367,0.00791
 747,-0.00814151,0.00165055,0.00179509,0.01692701,-0.01284014,0.0011529
 7,-0.00159652,-0.00114252,0.02759432,0.00217615,-0.01501847,0.00046918
 ,-0.00016307,-0.00032802,-0.00020710,0.00028008,0.00004879,-0.02356191
 ,-0.00947389,0.03051526,0.00223138,-0.00171848,-0.00016319,-0.00028058
 ,-0.00539631,0.00027200,0.00910581,0.00762972,0.00076124,0.00480052,0.
 01535819,-0.00693614,-0.03624413,-0.05420540,0.03691869,-0.00008360,-0
 .00088962,-0.00004361,-0.00133388,0.00183262,0.00145765,-0.01871693,-0
 .01491140,0.00315054,0.03807731,0.00103785,0.00197205,-0.00053041,0.00
 002584,0.00093079,-0.00007786,-0.00114548,-0.00056332,-0.00057455,-0.0
 1028721,-0.01886027,0.01329011,-0.04418847,-0.25227906,0.11435760,-0.0
 0012328,0.00109306,-0.00037733,0.00279689,-0.00302821,-0.00276399,0.00
 089924,-0.00217515,0.00190070,0.04977568,0.26927896,-0.00061824,-0.000
 06686,-0.00017610,-0.00036486,-0.00139316,0.00000555,0.00301505,0.0014
 1246,0.00052304,-0.00348747,-0.01179741,0.00869882,0.03185042,0.112556
 18,-0.11666320,-0.00086539,0.00070423,0.00094423,0.00133505,-0.0030768
 9,-0.00007216,-0.00463876,-0.00177028,-0.00067962,-0.03400304,-0.12265
 039,0.11656966,0.00263170,-0.00146242,-0.00094876,0.00102571,-0.004941
 08,0.00056333,0.00738289,0.00751966,0.00079576,0.00163769,0.00142367,0
 .01483512,-0.02535209,0.00028377,-0.02499638,-0.00053789,0.00263477,0.
 00075742,0.00038291,0.00024660,-0.00073249,-0.01598880,-0.00401251,-0.
 01551682,0.00294048,0.00019641,0.00777442,0.02644042,-0.00036393,0.001
 30911,0.00222475,-0.00004478,-0.00035742,0.00004362,0.00093116,0.00050
 857,0.00024636,-0.00438066,0.00108695,-0.02843705,0.00223815,-0.053872
 93,-0.01550598,0.00294746,-0.00426020,-0.00228525,-0.00081217,0.001252
 04,0.00044594,-0.00161509,-0.00060428,-0.00152061,0.00274193,0.0040937
 9,0.02521858,-0.00189058,0.05106691,0.00083933,0.00100781,0.00165986,-
 0.00038633,0.00015873,-0.00009868,-0.00082241,-0.00049012,0.00093467,-
 0.00384193,0.00033964,-0.01016371,-0.01283790,-0.01532025,-0.33217259,
 0.00088827,-0.00215439,0.00084838,0.00009484,-0.00032650,0.00062723,0.
 00134195,0.00028011,-0.00356612,-0.00222995,-0.00282187,-0.00940286,0.
 01681583,0.01945128,0.35170290,-0.12869847,-0.14980170,0.06480403,-0.0
 0024176,0.00189441,-0.00002885,-0.00074548,-0.00221989,0.00004176,-0.0
 2449878,-0.03548616,0.01774763,-0.00022747,-0.00059348,0.00050922,0.00
 160011,-0.00030490,-0.00050978,-0.00667775,0.00129987,-0.00235860,0.00
 212725,0.00048085,0.00020909,-0.00039246,0.00084082,0.00000789,0.00005
 344,0.00014523,-0.00006652,0.15763815,-0.19256523,-0.35689396,0.171501
 76,0.00004268,-0.00025977,0.00001047,-0.00024468,0.00002451,-0.0001561
 1,0.00659167,0.00075897,-0.00010709,0.00072338,0.00328534,-0.00084575,
 0.00089971,-0.00008995,0.00024700,0.00065574,0.00176768,-0.00118528,0.
 00070469,0.00005788,0.00016711,-0.00044349,-0.00038386,0.00088760,-0.0
 0011305,-0.00017992,-0.00014792,0.18387146,0.35191794,0.09026086,0.179
 61009,-0.09146094,-0.00013594,-0.00088783,0.00002301,0.00037843,0.0010
 4207,-0.00011273,-0.00813624,-0.00823771,0.00248357,0.00071512,0.00040
 499,0.00002926,-0.00090547,-0.00118438,0.00050142,-0.00140963,-0.00037
 918,0.00050755,-0.00098238,-0.00034738,-0.00018335,0.00027084,0.000256
 90,0.00007960,0.00016877,0.00008265,-0.00029556,-0.08019751,-0.1704008
 1,0.08826056,0.00087353,0.00082730,0.00053938,-0.00737382,0.00512521,0
 .03283532,0.00034363,0.00138102,-0.00051352,-0.00091718,-0.00122262,-0
 .00078290,0.00238779,-0.00026894,-0.00112315,-0.00025918,-0.00014971,0
 .00076706,-0.00033965,0.00046414,-0.00081054,-0.00241625,-0.00310955,-
 0.00293427,-0.00010392,0.00017170,-0.00000507,-0.00061645,0.00010328,0
 .00020481,0.00006322,-0.00012289,-0.00002686,0.00835828,0.00044693,-0.
 00030965,0.00004711,0.00349932,-0.07857386,-0.10947534,-0.00209029,-0.
 04374383,-0.03711129,-0.00022404,0.00055424,-0.00029983,-0.00133778,-0
 .00000291,-0.00026331,-0.00012096,0.00008762,0.00014887,-0.00011301,0.
 00007045,0.00022232,0.00292395,-0.00167786,-0.00103995,0.00022656,-0.0
 0007878,-0.00002407,0.00011476,-0.00004262,0.00002351,-0.00012651,-0.0
 0000485,0.00004059,-0.00319893,0.12372207,0.00066538,-0.00052749,-0.00
 052404,0.02828708,-0.15990597,-0.48080192,-0.00286514,0.01058035,0.017
 22055,0.00007992,0.00080326,0.00132134,-0.00298008,-0.00022611,-0.0008
 6396,0.00003653,-0.00005034,-0.00035241,-0.00030894,-0.00002375,-0.000
 22324,0.00436511,0.00156282,0.00050998,0.00054496,-0.00000891,0.000173
 05,0.00048381,0.00003571,-0.00007352,-0.00015837,0.00002901,0.00016762
 ,-0.02815025,0.14773140,0.46344655\\-0.00000164,-0.00000264,0.00000085
 ,-0.00000246,-0.00000390,0.00000223,0.00000421,-0.00001041,0.00000985,
 0.00000356,0.00000320,-0.00000763,-0.00000752,-0.00000866,0.00001143,0
 .00000138,0.00000468,-0.00000254,-0.00000031,0.00000285,0.00001035,0.0
 0000671,0.00001241,-0.00002158,-0.00000373,0.00000101,0.00000036,0.000
 00321,-0.00000135,-0.00000090,-0.00000037,0.00000080,-0.00000064,-0.00
 000305,0.00000201,-0.00000178\\\@


 YOU ARE IN A MAZE OF TWISTY LITTLE PASSAGES.
 Job cpu time:       0 days  2 hours 41 minutes 57.7 seconds.
 Elapsed time:       0 days  0 hours  8 minutes 10.9 seconds.
 File lengths (MBytes):  RWF=   1360 Int=      0 D2E=      0 Chk=     32 Scr=     32
 Normal termination of Gaussian 16 at Sat Jun 22 13:46:37 2019.
