 Entering Gaussian System, Link 0=g16
 Input=/scratch/harms.n//autotst-2.0-QMScratch/ts/CCO+[O]O_OO+[CH2]CO/conformers/CCO+[O]O_OO+[CH2]CO_forward_5.com
 Output=/scratch/harms.n//autotst-2.0-QMScratch/ts/CCO+[O]O_OO+[CH2]CO/conformers/CCO+[O]O_OO+[CH2]CO_forward_5.log
 Initial command:
 /shared/centos7/gaussian/g16/l1.exe "/scratch/harms.n/gauss_scrdir/Gau-46922.inp" -scrdir="/scratch/harms.n/gauss_scrdir/"
 Entering Link 1 = /shared/centos7/gaussian/g16/l1.exe PID=     46923.
  
 Copyright (c) 1988,1990,1992,1993,1995,1998,2003,2009,2016,
            Gaussian, Inc.  All Rights Reserved.
  
 This is part of the Gaussian(R) 16 program.  It is based on
 the Gaussian(R) 09 system (copyright 2009, Gaussian, Inc.),
 the Gaussian(R) 03 system (copyright 2003, Gaussian, Inc.),
 the Gaussian(R) 98 system (copyright 1998, Gaussian, Inc.),
 the Gaussian(R) 94 system (copyright 1995, Gaussian, Inc.),
 the Gaussian 92(TM) system (copyright 1992, Gaussian, Inc.),
 the Gaussian 90(TM) system (copyright 1990, Gaussian, Inc.),
 the Gaussian 88(TM) system (copyright 1988, Gaussian, Inc.),
 the Gaussian 86(TM) system (copyright 1986, Carnegie Mellon
 University), and the Gaussian 82(TM) system (copyright 1983,
 Carnegie Mellon University). Gaussian is a federally registered
 trademark of Gaussian, Inc.
  
 This software contains proprietary and confidential information,
 including trade secrets, belonging to Gaussian, Inc.
  
 This software is provided under written license and may be
 used, copied, transmitted, or stored only in accord with that
 written license.
  
 The following legend is applicable only to US Government
 contracts under FAR:
  
                    RESTRICTED RIGHTS LEGEND
  
 Use, reproduction and disclosure by the US Government is
 subject to restrictions as set forth in subparagraphs (a)
 and (c) of the Commercial Computer Software - Restricted
 Rights clause in FAR 52.227-19.
  
 Gaussian, Inc.
 340 Quinnipiac St., Bldg. 40, Wallingford CT 06492
  
  
 ---------------------------------------------------------------
 Warning -- This program may not be used in any manner that
 competes with the business of Gaussian, Inc. or will provide
 assistance to any competitor of Gaussian, Inc.  The licensee
 of this program is prohibited from giving any competitor of
 Gaussian, Inc. access to this program.  By using this program,
 the user acknowledges that Gaussian, Inc. is engaged in the
 business of creating and licensing software in the field of
 computational chemistry and represents and warrants to the
 licensee that it is not a competitor of Gaussian, Inc. and that
 it will not use this program in any manner prohibited above.
 ---------------------------------------------------------------
  

 Cite this work as:
 Gaussian 16, Revision A.03,
 M. J. Frisch, G. W. Trucks, H. B. Schlegel, G. E. Scuseria, 
 M. A. Robb, J. R. Cheeseman, G. Scalmani, V. Barone, 
 G. A. Petersson, H. Nakatsuji, X. Li, M. Caricato, A. V. Marenich, 
 J. Bloino, B. G. Janesko, R. Gomperts, B. Mennucci, H. P. Hratchian, 
 J. V. Ortiz, A. F. Izmaylov, J. L. Sonnenberg, D. Williams-Young, 
 F. Ding, F. Lipparini, F. Egidi, J. Goings, B. Peng, A. Petrone, 
 T. Henderson, D. Ranasinghe, V. G. Zakrzewski, J. Gao, N. Rega, 
 G. Zheng, W. Liang, M. Hada, M. Ehara, K. Toyota, R. Fukuda, 
 J. Hasegawa, M. Ishida, T. Nakajima, Y. Honda, O. Kitao, H. Nakai, 
 T. Vreven, K. Throssell, J. A. Montgomery, Jr., J. E. Peralta, 
 F. Ogliaro, M. J. Bearpark, J. J. Heyd, E. N. Brothers, K. N. Kudin, 
 V. N. Staroverov, T. A. Keith, R. Kobayashi, J. Normand, 
 K. Raghavachari, A. P. Rendell, J. C. Burant, S. S. Iyengar, 
 J. Tomasi, M. Cossi, J. M. Millam, M. Klene, C. Adamo, R. Cammi, 
 J. W. Ochterski, R. L. Martin, K. Morokuma, O. Farkas, 
 J. B. Foresman, and D. J. Fox, Gaussian, Inc., Wallingford CT, 2016.
 
 ******************************************
 Gaussian 16:  EM64L-G16RevA.03 25-Dec-2016
                22-Jun-2019 
 ******************************************
 %nprocshared=20
 Will use up to   20 processors via shared memory.
 %mem=5GB
 ----------------------------------------------------------------------
 #p m062x/cc-pVTZ opt=(ts,calcfc,noeigentest,maxcycles=900) freq scf=(m
 axcycle=900) IOP(7/33=1,2/16=3)
 ----------------------------------------------------------------------
 1/5=1,6=900,10=4,11=1,18=20,26=3,38=1/1,3;
 2/9=110,12=2,16=3,17=6,18=5,40=1/2;
 3/5=16,6=1,11=2,25=1,30=1,71=2,74=-55,140=1/1,2,3;
 4//1;
 5/5=2,7=900,38=5/2;
 8/6=4,10=90,11=11/1;
 11/6=1,8=1,9=11,15=111,16=1/1,2,10;
 10/6=1,13=1/2;
 6/7=2,8=2,9=2,10=2,28=1/1;
 7/10=1,18=20,25=1,33=1/1,2,3,16;
 1/5=1,6=900,10=4,11=1,18=20,26=3/3(2);
 2/9=110,16=3/2;
 99//99;
 2/9=110,16=3/2;
 3/5=16,6=1,11=2,25=1,30=1,71=1,74=-55/1,2,3;
 4/5=5,16=3,69=1/1;
 5/5=2,7=900,38=5/2;
 7/33=1/1,2,3,16;
 1/5=1,6=900,11=1,18=20,26=3/3(-5);
 2/9=110,16=3/2;
 6/7=2,8=2,9=2,10=2,19=2,28=1/1;
 99/9=1/99;
 Leave Link    1 at Sat Jun 22 13:08:42 2019, MaxMem=   671088640 cpu:              23.8 elap:               1.3
 (Enter /shared/centos7/gaussian/g16/l101.exe)
 ------------------------------
 Gaussian input prepared by ASE
 ------------------------------
 Symbolic Z-matrix:
 Charge =  0 Multiplicity = 2
 O                     1.29637  -1.08383   0.37434 
 O                    -1.71568  -0.40416  -0.53372 
 O                    -1.33992   0.15018   0.69229 
 C                     1.25065  -0.01742  -0.54226 
 C                     0.74513   1.24615   0.07961 
 H                     2.27608   0.13645  -0.89314 
 H                     0.64463  -0.2699   -1.41879 
 H                    -0.55027   0.96176   0.41798 
 H                     0.64509   2.10562  -0.579 
 H                     1.15695   1.47125   1.0594 
 H                     0.40419  -1.20387   0.71785 
 H                    -2.47755   0.1287   -0.79162 
 
 Add virtual bond connecting atoms H8         and O3         Dist= 2.20D+00.
 Add virtual bond connecting atoms H8         and C5         Dist= 2.59D+00.
 ITRead=  0  0  0  0  0  0  0  0  0  0  0  0
 MicOpt= -1 -1 -1 -1 -1 -1 -1 -1 -1 -1 -1 -1
 NAtoms=     12 NQM=       12 NQMF=       0 NMMI=      0 NMMIF=      0
                NMic=       0 NMicF=      0.
                    Isotopes and Nuclear Properties:
 (Nuclear quadrupole moments (NQMom) in fm**2, nuclear magnetic moments (NMagM)
  in nuclear magnetons)

  Atom         1           2           3           4           5           6           7           8           9          10
 IAtWgt=          16          16          16          12          12           1           1           1           1           1
 AtmWgt=  15.9949146  15.9949146  15.9949146  12.0000000  12.0000000   1.0078250   1.0078250   1.0078250   1.0078250   1.0078250
 NucSpn=           0           0           0           0           0           1           1           1           1           1
 AtZEff=  -0.0000000  -0.0000000  -0.0000000  -0.0000000  -0.0000000  -0.0000000  -0.0000000  -0.0000000  -0.0000000  -0.0000000
 NQMom=    0.0000000   0.0000000   0.0000000   0.0000000   0.0000000   0.0000000   0.0000000   0.0000000   0.0000000   0.0000000
 NMagM=    0.0000000   0.0000000   0.0000000   0.0000000   0.0000000   2.7928460   2.7928460   2.7928460   2.7928460   2.7928460
 AtZNuc=   8.0000000   8.0000000   8.0000000   6.0000000   6.0000000   1.0000000   1.0000000   1.0000000   1.0000000   1.0000000

  Atom        11          12
 IAtWgt=           1           1
 AtmWgt=   1.0078250   1.0078250
 NucSpn=           1           1
 AtZEff=  -0.0000000  -0.0000000
 NQMom=    0.0000000   0.0000000
 NMagM=    2.7928460   2.7928460
 AtZNuc=   1.0000000   1.0000000
 Leave Link  101 at Sat Jun 22 13:08:43 2019, MaxMem=   671088640 cpu:               5.4 elap:               0.4
 (Enter /shared/centos7/gaussian/g16/l103.exe)

 GradGradGradGradGradGradGradGradGradGradGradGradGradGradGradGradGradGrad
 Berny optimization.
 Initialization pass.
                           ----------------------------
                           !    Initial Parameters    !
                           ! (Angstroms and Degrees)  !
 --------------------------                            --------------------------
 ! Name  Definition              Value          Derivative Info.                !
 --------------------------------------------------------------------------------
 ! R1    R(1,4)                  1.4069         calculate D2E/DX2 analytically  !
 ! R2    R(1,11)                 0.9635         calculate D2E/DX2 analytically  !
 ! R3    R(2,3)                  1.397          calculate D2E/DX2 analytically  !
 ! R4    R(2,12)                 0.9648         calculate D2E/DX2 analytically  !
 ! R5    R(3,8)                  1.1651         calculate D2E/DX2 analytically  !
 ! R6    R(4,5)                  1.4963         calculate D2E/DX2 analytically  !
 ! R7    R(4,6)                  1.0947         calculate D2E/DX2 analytically  !
 ! R8    R(4,7)                  1.0951         calculate D2E/DX2 analytically  !
 ! R9    R(5,8)                  1.3687         calculate D2E/DX2 analytically  !
 ! R10   R(5,9)                  1.0874         calculate D2E/DX2 analytically  !
 ! R11   R(5,10)                 1.0864         calculate D2E/DX2 analytically  !
 ! A1    A(4,1,11)             107.2539         calculate D2E/DX2 analytically  !
 ! A2    A(3,2,12)             103.1694         calculate D2E/DX2 analytically  !
 ! A3    A(2,3,8)              104.6012         calculate D2E/DX2 analytically  !
 ! A4    A(1,4,5)              112.3523         calculate D2E/DX2 analytically  !
 ! A5    A(1,4,6)              106.5544         calculate D2E/DX2 analytically  !
 ! A6    A(1,4,7)              111.3872         calculate D2E/DX2 analytically  !
 ! A7    A(5,4,6)              109.3295         calculate D2E/DX2 analytically  !
 ! A8    A(5,4,7)              109.9            calculate D2E/DX2 analytically  !
 ! A9    A(6,4,7)              107.1112         calculate D2E/DX2 analytically  !
 ! A10   A(4,5,8)              104.302          calculate D2E/DX2 analytically  !
 ! A11   A(4,5,9)              116.54           calculate D2E/DX2 analytically  !
 ! A12   A(4,5,10)             114.9435         calculate D2E/DX2 analytically  !
 ! A13   A(8,5,9)              103.1133         calculate D2E/DX2 analytically  !
 ! A14   A(8,5,10)             100.303          calculate D2E/DX2 analytically  !
 ! A15   A(9,5,10)             114.667          calculate D2E/DX2 analytically  !
 ! A16   A(3,8,5)              147.6051         calculate D2E/DX2 analytically  !
 ! D1    D(11,1,4,5)            57.9586         calculate D2E/DX2 analytically  !
 ! D2    D(11,1,4,6)           177.6676         calculate D2E/DX2 analytically  !
 ! D3    D(11,1,4,7)           -65.841          calculate D2E/DX2 analytically  !
 ! D4    D(12,2,3,8)           -91.831          calculate D2E/DX2 analytically  !
 ! D5    D(2,3,8,5)            -79.6893         calculate D2E/DX2 analytically  !
 ! D6    D(1,4,5,8)            -64.7894         calculate D2E/DX2 analytically  !
 ! D7    D(1,4,5,9)           -177.6841         calculate D2E/DX2 analytically  !
 ! D8    D(1,4,5,10)            44.0026         calculate D2E/DX2 analytically  !
 ! D9    D(6,4,5,8)            177.13           calculate D2E/DX2 analytically  !
 ! D10   D(6,4,5,9)             64.2353         calculate D2E/DX2 analytically  !
 ! D11   D(6,4,5,10)           -74.078          calculate D2E/DX2 analytically  !
 ! D12   D(7,4,5,8)             59.8344         calculate D2E/DX2 analytically  !
 ! D13   D(7,4,5,9)            -53.0603         calculate D2E/DX2 analytically  !
 ! D14   D(7,4,5,10)           168.6264         calculate D2E/DX2 analytically  !
 ! D15   D(4,5,8,3)             25.1328         calculate D2E/DX2 analytically  !
 ! D16   D(9,5,8,3)            147.3308         calculate D2E/DX2 analytically  !
 ! D17   D(10,5,8,3)           -94.1216         calculate D2E/DX2 analytically  !
 --------------------------------------------------------------------------------
 Trust Radius=3.00D-01 FncErr=1.00D-07 GrdErr=1.00D-06 EigMax=2.50D+02 EigMin=1.00D-04
 Number of steps in this run=    100 maximum allowed number of steps=    100.
 Search for a saddle point of order  1.
 GradGradGradGradGradGradGradGradGradGradGradGradGradGradGradGradGradGrad

 Leave Link  103 at Sat Jun 22 13:08:43 2019, MaxMem=   671088640 cpu:               0.9 elap:               0.1
 (Enter /shared/centos7/gaussian/g16/l202.exe)
                          Input orientation:                          
 ---------------------------------------------------------------------
 Center     Atomic      Atomic             Coordinates (Angstroms)
 Number     Number       Type             X           Y           Z
 ---------------------------------------------------------------------
      1          8           0        1.296372   -1.083828    0.374338
      2          8           0       -1.715681   -0.404158   -0.533722
      3          8           0       -1.339916    0.150182    0.692285
      4          6           0        1.250652   -0.017415   -0.542256
      5          6           0        0.745130    1.246152    0.079608
      6          1           0        2.276081    0.136452   -0.893141
      7          1           0        0.644627   -0.269902   -1.418789
      8          1           0       -0.550269    0.961762    0.417976
      9          1           0        0.645085    2.105625   -0.578997
     10          1           0        1.156946    1.471246    1.059396
     11          1           0        0.404191   -1.203874    0.717851
     12          1           0       -2.477551    0.128703   -0.791621
 ---------------------------------------------------------------------
                    Distance matrix (angstroms):
                    1          2          3          4          5
     1  O    0.000000
     2  O    3.218538   0.000000
     3  O    2.928120   1.396992   0.000000
     4  C    1.406937   2.991450   2.874582   0.000000
     5  C    2.412372   3.025771   2.433915   1.496285   0.000000
     6  H    2.013806   4.044206   3.948316   1.094669   2.126379
     7  H    2.074259   2.524366   2.927715   1.095137   2.133943
     8  H    2.756161   2.032154   1.165097   2.263658   1.368733
     9  H    3.391995   3.445907   3.062702   2.208022   1.087411
    10  H    2.648990   3.782479   2.848561   2.188648   1.086390
    11  H    0.963535   2.588405   2.208174   1.926668   2.554647
    12  H    4.131850   0.964831   1.869934   3.739389   3.520427
                    6          7          8          9         10
     6  H    0.000000
     7  H    1.761554   0.000000
     8  H    3.223107   2.513658   0.000000
     9  H    2.576136   2.519599   1.931644   0.000000
    10  H    2.616589   3.071721   1.893562   1.829964   0.000000
    11  H    2.809936   2.344215   2.385560   3.562672   2.799921
    12  H    4.754722   3.209396   2.423124   3.701930   4.293979
                   11         12
    11  H    0.000000
    12  H    3.515495   0.000000
 Stoichiometry    C2H7O3(2)
 Framework group  C1[X(C2H7O3)]
 Deg. of freedom    30
 Full point group                 C1      NOp   1
 Largest Abelian subgroup         C1      NOp   1
 Largest concise Abelian subgroup C1      NOp   1
                         Standard orientation:                         
 ---------------------------------------------------------------------
 Center     Atomic      Atomic             Coordinates (Angstroms)
 Number     Number       Type             X           Y           Z
 ---------------------------------------------------------------------
      1          8           0       -1.296372   -1.083828   -0.374338
      2          8           0        1.715681   -0.404158    0.533722
      3          8           0        1.339916    0.150182   -0.692285
      4          6           0       -1.250652   -0.017415    0.542256
      5          6           0       -0.745130    1.246152   -0.079608
      6          1           0       -2.276081    0.136452    0.893141
      7          1           0       -0.644627   -0.269902    1.418789
      8          1           0        0.550269    0.961762   -0.417976
      9          1           0       -0.645085    2.105625    0.578997
     10          1           0       -1.156946    1.471246   -1.059396
     11          1           0       -0.404191   -1.203874   -0.717851
     12          1           0        2.477551    0.128703    0.791621
 ---------------------------------------------------------------------
 Rotational constants (GHZ):           6.9188654           3.0475557           2.6385488
 Leave Link  202 at Sat Jun 22 13:08:43 2019, MaxMem=   671088640 cpu:               2.1 elap:               0.2
 (Enter /shared/centos7/gaussian/g16/l301.exe)
 Standard basis: CC-pVTZ (5D, 7F)
 Ernie: Thresh=  0.10000D-02 Tol=  0.10000D-05 Strict=F.
 Ernie:  15 primitive shells out of 186 were deleted.
 There are   280 symmetry adapted cartesian basis functions of A   symmetry.
 There are   248 symmetry adapted basis functions of A   symmetry.
   248 basis functions,   379 primitive gaussians,   280 cartesian basis functions
    22 alpha electrons       21 beta electrons
       nuclear repulsion energy       194.1958751645 Hartrees.
 IExCor= 4336 DFT=T Ex+Corr=M062X ExCW=0 ScaHFX=  0.540000
 ScaDFX=  1.000000  1.000000  1.000000  1.000000 ScalE2=  1.000000  1.000000
 IRadAn=      5 IRanWt=     -1 IRanGd=            0 ICorTp=0 IEmpDi=  4
 NAtoms=   12 NActive=   12 NUniq=   12 SFac= 1.00D+00 NAtFMM=   60 NAOKFM=F Big=F
 Integral buffers will be    131072 words long.
 Raffenetti 2 integral format.
 Two-electron integral symmetry is turned on.
 Leave Link  301 at Sat Jun 22 13:08:43 2019, MaxMem=   671088640 cpu:               1.1 elap:               0.1
 (Enter /shared/centos7/gaussian/g16/l302.exe)
 NPDir=0 NMtPBC=     1 NCelOv=     1 NCel=       1 NClECP=     1 NCelD=      1
         NCelK=      1 NCelE2=     1 NClLst=     1 CellRange=     0.0.
 One-electron integrals computed using PRISM.
 One-electron integral symmetry used in STVInt
 NBasis=   248 RedAO= T EigKep=  7.94D-04  NBF=   248
 NBsUse=   248 1.00D-06 EigRej= -1.00D+00 NBFU=   248
 Precomputing XC quadrature grid using
 IXCGrd= 4 IRadAn=           5 IRanWt=          -1 IRanGd=           0 AccXCQ= 0.00D+00.
 Generated NRdTot=       0 NPtTot=           0 NUsed=           0 NTot=          32
 NSgBfM=   280   280   280   280   280 MxSgAt=    12 MxSgA2=    12.
 Leave Link  302 at Sat Jun 22 13:08:44 2019, MaxMem=   671088640 cpu:               9.1 elap:               0.6
 (Enter /shared/centos7/gaussian/g16/l303.exe)
 DipDrv:  MaxL=1.
 Leave Link  303 at Sat Jun 22 13:08:44 2019, MaxMem=   671088640 cpu:               4.5 elap:               0.3
 (Enter /shared/centos7/gaussian/g16/l401.exe)
 ExpMin= 1.03D-01 ExpMax= 1.53D+04 ExpMxC= 5.22D+02 IAcc=3 IRadAn=         5 AccDes= 0.00D+00
 Harris functional with IExCor= 1009 and IRadAn=       5 diagonalized for initial guess.
 HarFok:  IExCor= 1009 AccDes= 0.00D+00 IRadAn=         5 IDoV= 1 UseB2=F ITyADJ=14
 ICtDFT=  3500011 ScaDFX=  1.000000  1.000000  1.000000  1.000000
 FoFCou: FMM=F IPFlag=           0 FMFlag=      100000 FMFlg1=           0
         NFxFlg=           0 DoJE=T BraDBF=F KetDBF=T FulRan=T
         wScrn=  0.000000 ICntrl=       500 IOpCl=  0 I1Cent=   200000004 NGrid=           0
         NMat0=    1 NMatS0=      1 NMatT0=    0 NMatD0=    1 NMtDS0=    0 NMtDT0=    0
 Petite list used in FoFCou.
 Harris En= -305.776894755115    
 JPrj=0 DoOrth=F DoCkMO=F.
 Initial guess <Sx>= 0.0000 <Sy>= 0.0000 <Sz>= 0.5000 <S**2>= 0.7500 S= 0.5000
 Leave Link  401 at Sat Jun 22 13:08:45 2019, MaxMem=   671088640 cpu:              22.1 elap:               1.2
 (Enter /shared/centos7/gaussian/g16/l502.exe)
 Integral symmetry usage will be decided dynamically.
 UHF open shell SCF:
 Using DIIS extrapolation, IDIIS=  1040.
 NGot=   671088640 LenX=   670923676 LenY=   670844835
 Requested convergence on RMS density matrix=1.00D-08 within 900 cycles.
 Requested convergence on MAX density matrix=1.00D-06.
 Requested convergence on             energy=1.00D-06.
 No special actions if energy rises.
 Fock matrices will be formed incrementally for  20 cycles.
 Integral accuracy reduced to 1.0D-05 until final iterations.

 Cycle   1  Pass 0  IDiag  1:
 FoFJK:  IHMeth= 1 ICntrl=       0 DoSepK=F KAlg= 0 I1Cent=           0 FoldK=F
 IRaf= 980000000 NMat=       1 IRICut=       1 DoRegI=T DoRafI=F ISym2E= 0 IDoP0=0 IntGTp=1.
 FoFCou: FMM=F IPFlag=           0 FMFlag=      100000 FMFlg1=           0
         NFxFlg=           0 DoJE=F BraDBF=F KetDBF=F FulRan=T
         wScrn=  0.000000 ICntrl=         0 IOpCl=  1 I1Cent=           0 NGrid=           0
         NMat0=    1 NMatS0=      1 NMatT0=    0 NMatD0=    1 NMtDS0=    0 NMtDT0=    0
 Symmetry not used in FoFCou.
 E= -305.743320569099    
 DIIS: error= 1.69D-02 at cycle   1 NSaved=   1.
 NSaved= 1 IEnMin= 1 EnMin= -305.743320569099     IErMin= 1 ErrMin= 1.69D-02
 ErrMax= 1.69D-02  0.00D+00 EMaxC= 1.00D-01 BMatC= 8.22D-01 BMatP= 8.22D-01
 IDIUse=3 WtCom= 8.31D-01 WtEn= 1.69D-01
 Coeff-Com:  0.100D+01
 Coeff-En:   0.100D+01
 Coeff:      0.100D+01
 Gap=     0.331 Goal=   None    Shift=    0.000
 Gap=     0.357 Goal=   None    Shift=    0.000
 GapD=    0.331 DampG=1.000 DampE=0.500 DampFc=0.5000 IDamp=-1.
 Damping current iteration by 5.00D-01
 RMSDP=2.32D-03 MaxDP=1.32D-01              OVMax= 2.52D-01

 Cycle   2  Pass 0  IDiag  1:
 RMSU=  1.16D-03    CP:  1.00D+00
 E= -305.819009608590     Delta-E=       -0.075689039491 Rises=F Damp=T
 DIIS: error= 6.62D-03 at cycle   2 NSaved=   2.
 NSaved= 2 IEnMin= 2 EnMin= -305.819009608590     IErMin= 2 ErrMin= 6.62D-03
 ErrMax= 6.62D-03  0.00D+00 EMaxC= 1.00D-01 BMatC= 7.86D-02 BMatP= 8.22D-01
 IDIUse=3 WtCom= 9.34D-01 WtEn= 6.62D-02
 Coeff-Com: -0.927D-01 0.109D+01
 Coeff-En:   0.000D+00 0.100D+01
 Coeff:     -0.866D-01 0.109D+01
 Gap=     0.348 Goal=   None    Shift=    0.000
 Gap=     0.274 Goal=   None    Shift=    0.000
 RMSDP=5.60D-04 MaxDP=1.96D-02 DE=-7.57D-02 OVMax= 8.65D-02

 Cycle   3  Pass 0  IDiag  1:
 RMSU=  5.43D-04    CP:  1.00D+00  8.91D-01
 E= -305.893422834238     Delta-E=       -0.074413225648 Rises=F Damp=F
 DIIS: error= 2.72D-03 at cycle   3 NSaved=   3.
 NSaved= 3 IEnMin= 3 EnMin= -305.893422834238     IErMin= 3 ErrMin= 2.72D-03
 ErrMax= 2.72D-03  0.00D+00 EMaxC= 1.00D-01 BMatC= 2.02D-02 BMatP= 7.86D-02
 IDIUse=3 WtCom= 9.73D-01 WtEn= 2.72D-02
 Coeff-Com: -0.909D-01 0.352D+00 0.738D+00
 Coeff-En:   0.000D+00 0.000D+00 0.100D+01
 Coeff:     -0.884D-01 0.343D+00 0.746D+00
 Gap=     0.354 Goal=   None    Shift=    0.000
 Gap=     0.249 Goal=   None    Shift=    0.000
 RMSDP=2.21D-04 MaxDP=9.28D-03 DE=-7.44D-02 OVMax= 4.21D-02

 Cycle   4  Pass 0  IDiag  1:
 RMSU=  1.99D-04    CP:  1.00D+00  9.53D-01  8.85D-01
 E= -305.896687470339     Delta-E=       -0.003264636102 Rises=F Damp=F
 DIIS: error= 2.12D-03 at cycle   4 NSaved=   4.
 NSaved= 4 IEnMin= 4 EnMin= -305.896687470339     IErMin= 4 ErrMin= 2.12D-03
 ErrMax= 2.12D-03  0.00D+00 EMaxC= 1.00D-01 BMatC= 5.52D-03 BMatP= 2.02D-02
 IDIUse=3 WtCom= 9.79D-01 WtEn= 2.12D-02
 Coeff-Com: -0.324D-01 0.761D-01 0.375D+00 0.582D+00
 Coeff-En:   0.000D+00 0.000D+00 0.449D-01 0.955D+00
 Coeff:     -0.317D-01 0.745D-01 0.368D+00 0.589D+00
 Gap=     0.351 Goal=   None    Shift=    0.000
 Gap=     0.260 Goal=   None    Shift=    0.000
 RMSDP=9.72D-05 MaxDP=3.80D-03 DE=-3.26D-03 OVMax= 9.25D-03

 Cycle   5  Pass 0  IDiag  1:
 RMSU=  7.28D-05    CP:  1.00D+00  9.54D-01  9.76D-01  7.93D-01
 E= -305.897735263914     Delta-E=       -0.001047793574 Rises=F Damp=F
 DIIS: error= 5.60D-04 at cycle   5 NSaved=   5.
 NSaved= 5 IEnMin= 5 EnMin= -305.897735263914     IErMin= 5 ErrMin= 5.60D-04
 ErrMax= 5.60D-04  0.00D+00 EMaxC= 1.00D-01 BMatC= 4.72D-04 BMatP= 5.52D-03
 IDIUse=3 WtCom= 9.94D-01 WtEn= 5.60D-03
 Coeff-Com: -0.315D-02-0.540D-02 0.808D-01 0.233D+00 0.695D+00
 Coeff-En:   0.000D+00 0.000D+00 0.000D+00 0.000D+00 0.100D+01
 Coeff:     -0.313D-02-0.537D-02 0.804D-01 0.232D+00 0.696D+00
 Gap=     0.353 Goal=   None    Shift=    0.000
 Gap=     0.262 Goal=   None    Shift=    0.000
 RMSDP=4.45D-05 MaxDP=1.58D-03 DE=-1.05D-03 OVMax= 8.94D-03

 Cycle   6  Pass 0  IDiag  1:
 RMSU=  2.92D-05    CP:  1.00D+00  9.47D-01  1.00D+00  9.23D-01  1.16D+00
 E= -305.897901571009     Delta-E=       -0.000166307095 Rises=F Damp=F
 DIIS: error= 5.11D-04 at cycle   6 NSaved=   6.
 NSaved= 6 IEnMin= 6 EnMin= -305.897901571009     IErMin= 6 ErrMin= 5.11D-04
 ErrMax= 5.11D-04  0.00D+00 EMaxC= 1.00D-01 BMatC= 1.35D-04 BMatP= 4.72D-04
 IDIUse=3 WtCom= 9.95D-01 WtEn= 5.11D-03
 Coeff-Com:  0.892D-02-0.249D-01-0.742D-01-0.897D-01 0.299D+00 0.881D+00
 Coeff-En:   0.000D+00 0.000D+00 0.000D+00 0.000D+00 0.000D+00 0.100D+01
 Coeff:      0.888D-02-0.248D-01-0.738D-01-0.892D-01 0.297D+00 0.882D+00
 Gap=     0.354 Goal=   None    Shift=    0.000
 Gap=     0.262 Goal=   None    Shift=    0.000
 RMSDP=3.75D-05 MaxDP=1.31D-03 DE=-1.66D-04 OVMax= 8.76D-03

 Cycle   7  Pass 0  IDiag  1:
 RMSU=  1.58D-05    CP:  1.00D+00  9.43D-01  1.03D+00  1.01D+00  1.51D+00
                    CP:  1.17D+00
 E= -305.897981119181     Delta-E=       -0.000079548172 Rises=F Damp=F
 DIIS: error= 1.08D-04 at cycle   7 NSaved=   7.
 NSaved= 7 IEnMin= 7 EnMin= -305.897981119181     IErMin= 7 ErrMin= 1.08D-04
 ErrMax= 1.08D-04  0.00D+00 EMaxC= 1.00D-01 BMatC= 2.55D-05 BMatP= 1.35D-04
 IDIUse=3 WtCom= 9.99D-01 WtEn= 1.08D-03
 Coeff-Com:  0.351D-02-0.587D-02-0.411D-01-0.982D-01-0.943D-01 0.317D+00
 Coeff-Com:  0.919D+00
 Coeff-En:   0.000D+00 0.000D+00 0.000D+00 0.000D+00 0.000D+00 0.000D+00
 Coeff-En:   0.100D+01
 Coeff:      0.350D-02-0.586D-02-0.410D-01-0.981D-01-0.942D-01 0.317D+00
 Coeff:      0.919D+00
 Gap=     0.355 Goal=   None    Shift=    0.000
 Gap=     0.263 Goal=   None    Shift=    0.000
 RMSDP=2.13D-05 MaxDP=6.15D-04 DE=-7.95D-05 OVMax= 4.50D-03

 Cycle   8  Pass 0  IDiag  1:
 RMSU=  6.19D-06    CP:  1.00D+00  9.43D-01  1.04D+00  1.05D+00  1.72D+00
                    CP:  1.48D+00  1.21D+00
 E= -305.897998318668     Delta-E=       -0.000017199487 Rises=F Damp=F
 DIIS: error= 3.64D-05 at cycle   8 NSaved=   8.
 NSaved= 8 IEnMin= 8 EnMin= -305.897998318668     IErMin= 8 ErrMin= 3.64D-05
 ErrMax= 3.64D-05  0.00D+00 EMaxC= 1.00D-01 BMatC= 1.62D-06 BMatP= 2.55D-05
 IDIUse=1 WtCom= 1.00D+00 WtEn= 0.00D+00
 Coeff-Com: -0.123D-02 0.297D-02 0.129D-01 0.165D-01-0.875D-02-0.115D+00
 Coeff-Com: -0.983D-01 0.119D+01
 Coeff:     -0.123D-02 0.297D-02 0.129D-01 0.165D-01-0.875D-02-0.115D+00
 Coeff:     -0.983D-01 0.119D+01
 Gap=     0.355 Goal=   None    Shift=    0.000
 Gap=     0.263 Goal=   None    Shift=    0.000
 RMSDP=6.26D-06 MaxDP=2.29D-04 DE=-1.72D-05 OVMax= 1.36D-03

 Initial convergence to 1.0D-05 achieved.  Increase integral accuracy.
 Cycle   9  Pass 1  IDiag  1:
 E= -305.897974375213     Delta-E=        0.000023943455 Rises=F Damp=F
 DIIS: error= 2.24D-05 at cycle   1 NSaved=   1.
 NSaved= 1 IEnMin= 1 EnMin= -305.897974375213     IErMin= 1 ErrMin= 2.24D-05
 ErrMax= 2.24D-05  0.00D+00 EMaxC= 1.00D-01 BMatC= 1.51D-06 BMatP= 1.51D-06
 IDIUse=1 WtCom= 1.00D+00 WtEn= 0.00D+00
 Coeff-Com:  0.100D+01
 Coeff:      0.100D+01
 Gap=     0.355 Goal=   None    Shift=    0.000
 Gap=     0.263 Goal=   None    Shift=    0.000
 RMSDP=6.26D-06 MaxDP=2.29D-04 DE= 2.39D-05 OVMax= 4.77D-04

 Cycle  10  Pass 1  IDiag  1:
 RMSU=  4.44D-06    CP:  1.00D+00
 E= -305.897974773595     Delta-E=       -0.000000398382 Rises=F Damp=F
 DIIS: error= 1.38D-05 at cycle   2 NSaved=   2.
 NSaved= 2 IEnMin= 2 EnMin= -305.897974773595     IErMin= 2 ErrMin= 1.38D-05
 ErrMax= 1.38D-05  0.00D+00 EMaxC= 1.00D-01 BMatC= 2.74D-07 BMatP= 1.51D-06
 IDIUse=1 WtCom= 1.00D+00 WtEn= 0.00D+00
 Coeff-Com:  0.177D+00 0.823D+00
 Coeff:      0.177D+00 0.823D+00
 Gap=     0.355 Goal=   None    Shift=    0.000
 Gap=     0.263 Goal=   None    Shift=    0.000
 RMSDP=1.20D-06 MaxDP=6.16D-05 DE=-3.98D-07 OVMax= 2.84D-04

 Cycle  11  Pass 1  IDiag  1:
 RMSU=  1.15D-06    CP:  1.00D+00  1.08D+00
 E= -305.897974875673     Delta-E=       -0.000000102078 Rises=F Damp=F
 DIIS: error= 9.13D-06 at cycle   3 NSaved=   3.
 NSaved= 3 IEnMin= 3 EnMin= -305.897974875673     IErMin= 3 ErrMin= 9.13D-06
 ErrMax= 9.13D-06  0.00D+00 EMaxC= 1.00D-01 BMatC= 1.57D-07 BMatP= 2.74D-07
 IDIUse=1 WtCom= 1.00D+00 WtEn= 0.00D+00
 Coeff-Com: -0.566D-01 0.402D+00 0.654D+00
 Coeff:     -0.566D-01 0.402D+00 0.654D+00
 Gap=     0.355 Goal=   None    Shift=    0.000
 Gap=     0.263 Goal=   None    Shift=    0.000
 RMSDP=7.33D-07 MaxDP=2.96D-05 DE=-1.02D-07 OVMax= 1.82D-04

 Cycle  12  Pass 1  IDiag  1:
 RMSU=  6.15D-07    CP:  1.00D+00  1.16D+00  1.11D+00
 E= -305.897974933076     Delta-E=       -0.000000057403 Rises=F Damp=F
 DIIS: error= 4.77D-06 at cycle   4 NSaved=   4.
 NSaved= 4 IEnMin= 4 EnMin= -305.897974933076     IErMin= 4 ErrMin= 4.77D-06
 ErrMax= 4.77D-06  0.00D+00 EMaxC= 1.00D-01 BMatC= 2.37D-08 BMatP= 1.57D-07
 IDIUse=1 WtCom= 1.00D+00 WtEn= 0.00D+00
 Coeff-Com: -0.450D-01 0.131D-01 0.175D+00 0.857D+00
 Coeff:     -0.450D-01 0.131D-01 0.175D+00 0.857D+00
 Gap=     0.355 Goal=   None    Shift=    0.000
 Gap=     0.263 Goal=   None    Shift=    0.000
 RMSDP=5.40D-07 MaxDP=3.51D-05 DE=-5.74D-08 OVMax= 1.73D-04

 Cycle  13  Pass 1  IDiag  1:
 RMSU=  2.84D-07    CP:  1.00D+00  1.21D+00  1.37D+00  1.44D+00
 E= -305.897974955043     Delta-E=       -0.000000021967 Rises=F Damp=F
 DIIS: error= 3.44D-06 at cycle   5 NSaved=   5.
 NSaved= 5 IEnMin= 5 EnMin= -305.897974955043     IErMin= 5 ErrMin= 3.44D-06
 ErrMax= 3.44D-06  0.00D+00 EMaxC= 1.00D-01 BMatC= 1.40D-08 BMatP= 2.37D-08
 IDIUse=1 WtCom= 1.00D+00 WtEn= 0.00D+00
 Coeff-Com:  0.118D-01-0.247D+00-0.352D+00 0.503D+00 0.108D+01
 Coeff:      0.118D-01-0.247D+00-0.352D+00 0.503D+00 0.108D+01
 Gap=     0.355 Goal=   None    Shift=    0.000
 Gap=     0.263 Goal=   None    Shift=    0.000
 RMSDP=6.99D-07 MaxDP=3.74D-05 DE=-2.20D-08 OVMax= 2.28D-04

 Cycle  14  Pass 1  IDiag  1:
 RMSU=  1.35D-07    CP:  1.00D+00  1.27D+00  1.72D+00  2.22D+00  1.35D+00
 E= -305.897974969683     Delta-E=       -0.000000014640 Rises=F Damp=F
 DIIS: error= 9.34D-07 at cycle   6 NSaved=   6.
 NSaved= 6 IEnMin= 6 EnMin= -305.897974969683     IErMin= 6 ErrMin= 9.34D-07
 ErrMax= 9.34D-07  0.00D+00 EMaxC= 1.00D-01 BMatC= 1.43D-09 BMatP= 1.40D-08
 IDIUse=1 WtCom= 1.00D+00 WtEn= 0.00D+00
 Coeff-Com:  0.975D-02-0.103D+00-0.164D+00 0.111D+00 0.457D+00 0.690D+00
 Coeff:      0.975D-02-0.103D+00-0.164D+00 0.111D+00 0.457D+00 0.690D+00
 Gap=     0.355 Goal=   None    Shift=    0.000
 Gap=     0.263 Goal=   None    Shift=    0.000
 RMSDP=1.36D-07 MaxDP=7.73D-06 DE=-1.46D-08 OVMax= 4.65D-05

 Cycle  15  Pass 1  IDiag  1:
 RMSU=  6.06D-08    CP:  1.00D+00  1.28D+00  1.79D+00  2.34D+00  1.47D+00
                    CP:  1.09D+00
 E= -305.897974970630     Delta-E=       -0.000000000946 Rises=F Damp=F
 DIIS: error= 5.00D-07 at cycle   7 NSaved=   7.
 NSaved= 7 IEnMin= 7 EnMin= -305.897974970630     IErMin= 7 ErrMin= 5.00D-07
 ErrMax= 5.00D-07  0.00D+00 EMaxC= 1.00D-01 BMatC= 2.65D-10 BMatP= 1.43D-09
 IDIUse=1 WtCom= 1.00D+00 WtEn= 0.00D+00
 Coeff-Com: -0.380D-03 0.347D-01 0.463D-01-0.995D-01-0.144D+00 0.166D+00
 Coeff-Com:  0.996D+00
 Coeff:     -0.380D-03 0.347D-01 0.463D-01-0.995D-01-0.144D+00 0.166D+00
 Coeff:      0.996D+00
 Gap=     0.355 Goal=   None    Shift=    0.000
 Gap=     0.263 Goal=   None    Shift=    0.000
 RMSDP=7.68D-08 MaxDP=3.95D-06 DE=-9.46D-10 OVMax= 2.68D-05

 Cycle  16  Pass 1  IDiag  1:
 RMSU=  3.53D-08    CP:  1.00D+00  1.28D+00  1.82D+00  2.40D+00  1.57D+00
                    CP:  1.32D+00  1.38D+00
 E= -305.897974970913     Delta-E=       -0.000000000283 Rises=F Damp=F
 DIIS: error= 1.96D-07 at cycle   8 NSaved=   8.
 NSaved= 8 IEnMin= 8 EnMin= -305.897974970913     IErMin= 8 ErrMin= 1.96D-07
 ErrMax= 1.96D-07  0.00D+00 EMaxC= 1.00D-01 BMatC= 7.10D-11 BMatP= 2.65D-10
 IDIUse=1 WtCom= 1.00D+00 WtEn= 0.00D+00
 Coeff-Com: -0.279D-02 0.406D-01 0.616D-01-0.685D-01-0.174D+00-0.122D+00
 Coeff-Com:  0.352D+00 0.914D+00
 Coeff:     -0.279D-02 0.406D-01 0.616D-01-0.685D-01-0.174D+00-0.122D+00
 Coeff:      0.352D+00 0.914D+00
 Gap=     0.355 Goal=   None    Shift=    0.000
 Gap=     0.263 Goal=   None    Shift=    0.000
 RMSDP=4.23D-08 MaxDP=2.06D-06 DE=-2.83D-10 OVMax= 1.39D-05

 Cycle  17  Pass 1  IDiag  1:
 RMSU=  1.39D-08    CP:  1.00D+00  1.28D+00  1.83D+00  2.42D+00  1.61D+00
                    CP:  1.47D+00  1.72D+00  1.35D+00
 E= -305.897974970989     Delta-E=       -0.000000000076 Rises=F Damp=F
 DIIS: error= 8.41D-08 at cycle   9 NSaved=   9.
 NSaved= 9 IEnMin= 9 EnMin= -305.897974970989     IErMin= 9 ErrMin= 8.41D-08
 ErrMax= 8.41D-08  0.00D+00 EMaxC= 1.00D-01 BMatC= 7.23D-12 BMatP= 7.10D-11
 IDIUse=1 WtCom= 1.00D+00 WtEn= 0.00D+00
 Coeff-Com:  0.157D-03-0.745D-02-0.985D-02 0.179D-01 0.327D-01-0.259D-01
 Coeff-Com: -0.218D+00-0.498D-01 0.126D+01
 Coeff:      0.157D-03-0.745D-02-0.985D-02 0.179D-01 0.327D-01-0.259D-01
 Coeff:     -0.218D+00-0.498D-01 0.126D+01
 Gap=     0.355 Goal=   None    Shift=    0.000
 Gap=     0.263 Goal=   None    Shift=    0.000
 RMSDP=2.26D-08 MaxDP=1.03D-06 DE=-7.61D-11 OVMax= 6.67D-06

 Cycle  18  Pass 1  IDiag  1:
 RMSU=  4.65D-09    CP:  1.00D+00  1.28D+00  1.84D+00  2.43D+00  1.63D+00
                    CP:  1.53D+00  1.90D+00  1.73D+00  1.48D+00
 E= -305.897974971006     Delta-E=       -0.000000000017 Rises=F Damp=F
 DIIS: error= 2.50D-08 at cycle  10 NSaved=  10.
 NSaved=10 IEnMin=10 EnMin= -305.897974971006     IErMin=10 ErrMin= 2.50D-08
 ErrMax= 2.50D-08  0.00D+00 EMaxC= 1.00D-01 BMatC= 1.22D-12 BMatP= 7.23D-12
 IDIUse=1 WtCom= 1.00D+00 WtEn= 0.00D+00
 Coeff-Com:  0.239D-03-0.507D-02-0.711D-02 0.102D-01 0.229D-01 0.498D-02
 Coeff-Com: -0.873D-01-0.962D-01 0.324D+00 0.833D+00
 Coeff:      0.239D-03-0.507D-02-0.711D-02 0.102D-01 0.229D-01 0.498D-02
 Coeff:     -0.873D-01-0.962D-01 0.324D+00 0.833D+00
 Gap=     0.355 Goal=   None    Shift=    0.000
 Gap=     0.263 Goal=   None    Shift=    0.000
 RMSDP=4.62D-09 MaxDP=1.45D-07 DE=-1.69D-11 OVMax= 7.27D-07

 SCF Done:  E(UM062X) =  -305.897974971     A.U. after   18 cycles
            NFock= 18  Conv=0.46D-08     -V/T= 2.0051
 <Sx>= 0.0000 <Sy>= 0.0000 <Sz>= 0.5000 <S**2>= 0.7595 S= 0.5047
 <L.S>= 0.000000000000E+00
 KE= 3.043604604336D+02 PE=-1.107719695124D+03 EE= 3.032653845548D+02
 Annihilation of the first spin contaminant:
 S**2 before annihilation     0.7595,   after     0.7500
 Leave Link  502 at Sat Jun 22 13:09:55 2019, MaxMem=   671088640 cpu:            1394.6 elap:              70.1
 (Enter /shared/centos7/gaussian/g16/l801.exe)
 DoSCS=F DFT=T ScalE2(SS,OS)=  1.000000  1.000000
 Range of M.O.s used for correlation:     1   248
 NBasis=   248 NAE=    22 NBE=    21 NFC=     0 NFV=     0
 NROrb=    248 NOA=    22 NOB=    21 NVA=   226 NVB=   227
 Leave Link  801 at Sat Jun 22 13:09:55 2019, MaxMem=   671088640 cpu:               1.1 elap:               0.1
 (Enter /shared/centos7/gaussian/g16/l1101.exe)
 Using compressed storage, NAtomX=    12.
 Will process     13 centers per pass.
 Leave Link 1101 at Sat Jun 22 13:09:57 2019, MaxMem=   671088640 cpu:              26.5 elap:               1.5
 (Enter /shared/centos7/gaussian/g16/l1102.exe)
 Symmetrizing basis deriv contribution to polar:
 IMax=3 JMax=2 DiffMx= 0.00D+00
 Leave Link 1102 at Sat Jun 22 13:09:57 2019, MaxMem=   671088640 cpu:               2.7 elap:               0.2
 (Enter /shared/centos7/gaussian/g16/l1110.exe)
 Forming Gx(P) for the SCF density, NAtomX=    12.
 Integral derivatives from FoFJK, PRISM(SPDF).
 Do as many integral derivatives as possible in FoFJK.
 G2DrvN: MDV=     671087640.
 G2DrvN: will do    13 centers at a time, making    1 passes.
 Calling FoFCou, ICntrl=  3107 FMM=F I1Cent=   0 AccDes= 0.00D+00.
 FoFJK:  IHMeth= 1 ICntrl=    3107 DoSepK=F KAlg= 0 I1Cent=           0 FoldK=F
 IRaf=         0 NMat=       1 IRICut=       1 DoRegI=T DoRafI=F ISym2E= 0 IDoP0=0 IntGTp=1.
 FoFCou: FMM=F IPFlag=           0 FMFlag=      100000 FMFlg1=           0
         NFxFlg=           0 DoJE=F BraDBF=F KetDBF=F FulRan=T
         wScrn=  0.000000 ICntrl=      3107 IOpCl=  1 I1Cent=           0 NGrid=           0
         NMat0=    1 NMatS0=      1 NMatT0=    0 NMatD0=    1 NMtDS0=    0 NMtDT0=    0
 Symmetry not used in FoFCou.
 End of G2Drv F.D. properties file   721 does not exist.
 End of G2Drv F.D. properties file   722 does not exist.
 End of G2Drv F.D. properties file   788 does not exist.
 Leave Link 1110 at Sat Jun 22 13:12:02 2019, MaxMem=   671088640 cpu:            2495.4 elap:             125.2
 (Enter /shared/centos7/gaussian/g16/l1002.exe)
 Minotr:  UHF open shell wavefunction.
          IDoAtm=111111111111
          Direct CPHF calculation.
          Differentiating once with respect to nuclear coordinates.
          Requested convergence is 1.0D-08 RMS, and 1.0D-07 maximum.
          Secondary convergence is 1.0D-12 RMS, and 1.0D-12 maximum.
          NewPWx=T KeepS1=F KeepF1=F KeepIn=T MapXYZ=F SortEE=F KeepMc=T.
         3584 words used for storage of precomputed grid.
 Two-electron integrals replicated using symmetry.
          MDV=     671088640 using IRadAn=       1.
          Solving linear equations simultaneously, MaxMat=     380.
 FoF2E skips out because all densities are zero.
 CalDSu exits because no D1Ps are significant.
 FoFJK:  IHMeth= 1 ICntrl=       0 DoSepK=F KAlg= 0 I1Cent=           0 FoldK=F
 IRaf= 970000000 NMat=      36 IRICut=      90 DoRegI=T DoRafI=T ISym2E= 2 IDoP0=3 IntGTp=3.
 FoFCou: FMM=F IPFlag=           0 FMFlag=      100000 FMFlg1=           0
         NFxFlg=           0 DoJE=F BraDBF=F KetDBF=F FulRan=T
         wScrn=  0.000000 ICntrl=         0 IOpCl=  1 I1Cent=           0 NGrid=           0
         NMat0=   36 NMatS0=     36 NMatT0=    0 NMatD0=   36 NMtDS0=    0 NMtDT0=    0
 Integrals replicated using symmetry in FoFCou.
 Raff kept on since  96.35% of shell-pairs survive, threshold=   0.20 IRatSp=96.
          There are    39 degrees of freedom in the 1st order CPHF.  IDoFFX=6 NUNeed=     0.
     33 vectors produced by pass  0 Test12= 2.50D-14 2.56D-09 XBig12= 1.26D-01 1.42D-01.
 AX will form    33 AO Fock derivatives at one time.
     33 vectors produced by pass  1 Test12= 2.50D-14 2.56D-09 XBig12= 1.70D-02 2.32D-02.
     33 vectors produced by pass  2 Test12= 2.50D-14 2.56D-09 XBig12= 9.28D-04 5.72D-03.
     33 vectors produced by pass  3 Test12= 2.50D-14 2.56D-09 XBig12= 1.29D-05 5.68D-04.
     33 vectors produced by pass  4 Test12= 2.50D-14 2.56D-09 XBig12= 1.60D-07 5.99D-05.
     33 vectors produced by pass  5 Test12= 2.50D-14 2.56D-09 XBig12= 2.43D-09 6.01D-06.
     33 vectors produced by pass  6 Test12= 2.50D-14 2.56D-09 XBig12= 2.67D-11 5.54D-07.
     17 vectors produced by pass  7 Test12= 2.50D-14 2.56D-09 XBig12= 2.01D-13 3.77D-08.
      1 vectors produced by pass  8 Test12= 2.50D-14 2.56D-09 XBig12= 1.42D-15 3.54D-09.
 InvSVY:  IOpt=1 It=  1 EMax= 1.11D-15
 Solved reduced A of dimension   249 with    33 vectors.
 End of Minotr F.D. properties file   721 does not exist.
 End of Minotr F.D. properties file   722 does not exist.
 End of Minotr F.D. properties file   788 does not exist.
 Leave Link 1002 at Sat Jun 22 13:15:45 2019, MaxMem=   671088640 cpu:            4450.6 elap:             223.0
 (Enter /shared/centos7/gaussian/g16/l601.exe)
 Copying SCF densities to generalized density rwf, IOpCl= 1 IROHF=0.

 **********************************************************************

            Population analysis using the SCF density.

 **********************************************************************

 Orbital symmetries:
 Alpha Orbitals:
       Occupied  (A) (A) (A) (A) (A) (A) (A) (A) (A) (A) (A) (A)
                 (A) (A) (A) (A) (A) (A) (A) (A) (A) (A)
       Virtual   (A) (A) (A) (A) (A) (A) (A) (A) (A) (A) (A) (A)
                 (A) (A) (A) (A) (A) (A) (A) (A) (A) (A) (A) (A)
                 (A) (A) (A) (A) (A) (A) (A) (A) (A) (A) (A) (A)
                 (A) (A) (A) (A) (A) (A) (A) (A) (A) (A) (A) (A)
                 (A) (A) (A) (A) (A) (A) (A) (A) (A) (A) (A) (A)
                 (A) (A) (A) (A) (A) (A) (A) (A) (A) (A) (A) (A)
                 (A) (A) (A) (A) (A) (A) (A) (A) (A) (A) (A) (A)
                 (A) (A) (A) (A) (A) (A) (A) (A) (A) (A) (A) (A)
                 (A) (A) (A) (A) (A) (A) (A) (A) (A) (A) (A) (A)
                 (A) (A) (A) (A) (A) (A) (A) (A) (A) (A) (A) (A)
                 (A) (A) (A) (A) (A) (A) (A) (A) (A) (A) (A) (A)
                 (A) (A) (A) (A) (A) (A) (A) (A) (A) (A) (A) (A)
                 (A) (A) (A) (A) (A) (A) (A) (A) (A) (A) (A) (A)
                 (A) (A) (A) (A) (A) (A) (A) (A) (A) (A) (A) (A)
                 (A) (A) (A) (A) (A) (A) (A) (A) (A) (A) (A) (A)
                 (A) (A) (A) (A) (A) (A) (A) (A) (A) (A) (A) (A)
                 (A) (A) (A) (A) (A) (A) (A) (A) (A) (A) (A) (A)
                 (A) (A) (A) (A) (A) (A) (A) (A) (A) (A) (A) (A)
                 (A) (A) (A) (A) (A) (A) (A) (A) (A) (A)
 Beta  Orbitals:
       Occupied  (A) (A) (A) (A) (A) (A) (A) (A) (A) (A) (A) (A)
                 (A) (A) (A) (A) (A) (A) (A) (A) (A)
       Virtual   (A) (A) (A) (A) (A) (A) (A) (A) (A) (A) (A) (A)
                 (A) (A) (A) (A) (A) (A) (A) (A) (A) (A) (A) (A)
                 (A) (A) (A) (A) (A) (A) (A) (A) (A) (A) (A) (A)
                 (A) (A) (A) (A) (A) (A) (A) (A) (A) (A) (A) (A)
                 (A) (A) (A) (A) (A) (A) (A) (A) (A) (A) (A) (A)
                 (A) (A) (A) (A) (A) (A) (A) (A) (A) (A) (A) (A)
                 (A) (A) (A) (A) (A) (A) (A) (A) (A) (A) (A) (A)
                 (A) (A) (A) (A) (A) (A) (A) (A) (A) (A) (A) (A)
                 (A) (A) (A) (A) (A) (A) (A) (A) (A) (A) (A) (A)
                 (A) (A) (A) (A) (A) (A) (A) (A) (A) (A) (A) (A)
                 (A) (A) (A) (A) (A) (A) (A) (A) (A) (A) (A) (A)
                 (A) (A) (A) (A) (A) (A) (A) (A) (A) (A) (A) (A)
                 (A) (A) (A) (A) (A) (A) (A) (A) (A) (A) (A) (A)
                 (A) (A) (A) (A) (A) (A) (A) (A) (A) (A) (A) (A)
                 (A) (A) (A) (A) (A) (A) (A) (A) (A) (A) (A) (A)
                 (A) (A) (A) (A) (A) (A) (A) (A) (A) (A) (A) (A)
                 (A) (A) (A) (A) (A) (A) (A) (A) (A) (A) (A) (A)
                 (A) (A) (A) (A) (A) (A) (A) (A) (A) (A) (A) (A)
                 (A) (A) (A) (A) (A) (A) (A) (A) (A) (A) (A)
 The electronic state is 2-A.
 Alpha  occ. eigenvalues --  -19.70137 -19.70087 -19.61033 -10.58736 -10.56190
 Alpha  occ. eigenvalues --   -1.28092  -1.14056  -1.00749  -0.86021  -0.72038
 Alpha  occ. eigenvalues --   -0.63713  -0.60921  -0.57488  -0.54299  -0.52805
 Alpha  occ. eigenvalues --   -0.50455  -0.47230  -0.41945  -0.40836  -0.39193
 Alpha  occ. eigenvalues --   -0.35248  -0.30253
 Alpha virt. eigenvalues --    0.05237   0.08474   0.10560   0.12130   0.12957
 Alpha virt. eigenvalues --    0.13956   0.15241   0.19916   0.21558   0.25982
 Alpha virt. eigenvalues --    0.28655   0.30257   0.36050   0.37749   0.39534
 Alpha virt. eigenvalues --    0.42885   0.43780   0.45251   0.46952   0.47698
 Alpha virt. eigenvalues --    0.49474   0.49700   0.51218   0.52821   0.55799
 Alpha virt. eigenvalues --    0.56718   0.59814   0.63511   0.66380   0.67837
 Alpha virt. eigenvalues --    0.68191   0.70810   0.72887   0.76897   0.77989
 Alpha virt. eigenvalues --    0.78369   0.82967   0.85598   0.89417   0.90579
 Alpha virt. eigenvalues --    0.92795   0.93071   0.99380   1.02049   1.04378
 Alpha virt. eigenvalues --    1.05152   1.09000   1.13403   1.14728   1.15948
 Alpha virt. eigenvalues --    1.17847   1.18678   1.20647   1.23606   1.26897
 Alpha virt. eigenvalues --    1.30477   1.31092   1.32797   1.35475   1.36542
 Alpha virt. eigenvalues --    1.40425   1.43544   1.46610   1.49198   1.51625
 Alpha virt. eigenvalues --    1.54194   1.58858   1.63939   1.68471   1.70693
 Alpha virt. eigenvalues --    1.77761   1.86466   1.93053   1.95750   2.01994
 Alpha virt. eigenvalues --    2.02609   2.06717   2.10170   2.12277   2.17614
 Alpha virt. eigenvalues --    2.19192   2.23470   2.25112   2.31571   2.34583
 Alpha virt. eigenvalues --    2.40829   2.41970   2.47462   2.52299   2.54401
 Alpha virt. eigenvalues --    2.56711   2.62534   2.65646   2.71237   2.73571
 Alpha virt. eigenvalues --    2.75411   2.83609   2.87055   2.91324   2.92336
 Alpha virt. eigenvalues --    2.94866   2.98130   3.00427   3.00808   3.03525
 Alpha virt. eigenvalues --    3.06972   3.08460   3.11139   3.14804   3.16502
 Alpha virt. eigenvalues --    3.19846   3.21628   3.25197   3.26359   3.28514
 Alpha virt. eigenvalues --    3.30934   3.34282   3.38059   3.38907   3.42947
 Alpha virt. eigenvalues --    3.43975   3.45308   3.49466   3.50325   3.54734
 Alpha virt. eigenvalues --    3.55924   3.56828   3.61630   3.62902   3.71091
 Alpha virt. eigenvalues --    3.71956   3.73925   3.74185   3.75456   3.79417
 Alpha virt. eigenvalues --    3.80403   3.83698   3.86076   3.87692   3.88411
 Alpha virt. eigenvalues --    3.90444   3.92076   3.93362   3.96997   3.99345
 Alpha virt. eigenvalues --    4.00720   4.04754   4.06544   4.07892   4.09946
 Alpha virt. eigenvalues --    4.12696   4.15462   4.17979   4.20837   4.24572
 Alpha virt. eigenvalues --    4.27833   4.28441   4.34026   4.38014   4.41008
 Alpha virt. eigenvalues --    4.44279   4.49392   4.55820   4.58373   4.67294
 Alpha virt. eigenvalues --    4.70981   4.73067   4.77422   4.80698   4.82009
 Alpha virt. eigenvalues --    4.85148   4.89588   4.94044   4.95777   5.00490
 Alpha virt. eigenvalues --    5.01095   5.05407   5.06788   5.11735   5.12295
 Alpha virt. eigenvalues --    5.14788   5.22769   5.31194   5.33073   5.38892
 Alpha virt. eigenvalues --    5.43102   5.48571   5.57560   5.58098   5.70169
 Alpha virt. eigenvalues --    5.73984   5.76610   5.86189   5.92307   5.97847
 Alpha virt. eigenvalues --    6.11704   6.15864   6.20006   6.31007   6.34507
 Alpha virt. eigenvalues --    6.37529   6.45591   6.48874   6.52004   6.56044
 Alpha virt. eigenvalues --    6.60528   6.65966   6.66749   6.70720   6.75253
 Alpha virt. eigenvalues --    6.78264   6.83679   6.86343   6.89104   7.01806
 Alpha virt. eigenvalues --    7.13959   7.16484   7.21102   7.39118   7.43971
 Alpha virt. eigenvalues --    7.58267  10.02291  11.22664  12.03179  12.08046
 Alpha virt. eigenvalues --   12.88206
  Beta  occ. eigenvalues --  -19.69966 -19.69224 -19.61030 -10.58765 -10.55659
  Beta  occ. eigenvalues --   -1.26528  -1.14006  -0.98473  -0.84428  -0.70680
  Beta  occ. eigenvalues --   -0.62601  -0.58714  -0.55798  -0.52999  -0.51884
  Beta  occ. eigenvalues --   -0.49247  -0.46392  -0.40672  -0.37987  -0.37658
  Beta  occ. eigenvalues --   -0.34898
  Beta virt. eigenvalues --   -0.08565   0.05260   0.08388   0.10547   0.12186
  Beta virt. eigenvalues --    0.13028   0.14422   0.15348   0.20124   0.21685
  Beta virt. eigenvalues --    0.26638   0.28734   0.30349   0.36281   0.37917
  Beta virt. eigenvalues --    0.39619   0.43043   0.43963   0.46469   0.47233
  Beta virt. eigenvalues --    0.48961   0.50320   0.50516   0.52064   0.53019
  Beta virt. eigenvalues --    0.56161   0.57067   0.60030   0.64062   0.66530
  Beta virt. eigenvalues --    0.67902   0.68357   0.71118   0.73223   0.76986
  Beta virt. eigenvalues --    0.78051   0.78601   0.83224   0.85685   0.89398
  Beta virt. eigenvalues --    0.90745   0.92924   0.93148   0.99434   1.02090
  Beta virt. eigenvalues --    1.04489   1.05717   1.09138   1.13548   1.15333
  Beta virt. eigenvalues --    1.16138   1.18079   1.18979   1.20939   1.24202
  Beta virt. eigenvalues --    1.27007   1.30665   1.31422   1.33316   1.35676
  Beta virt. eigenvalues --    1.36923   1.40712   1.43868   1.47131   1.49425
  Beta virt. eigenvalues --    1.52447   1.54782   1.59528   1.64531   1.69288
  Beta virt. eigenvalues --    1.71212   1.78721   1.86776   1.93571   1.96245
  Beta virt. eigenvalues --    2.02333   2.02800   2.06999   2.10759   2.12489
  Beta virt. eigenvalues --    2.17908   2.19814   2.23597   2.25609   2.32400
  Beta virt. eigenvalues --    2.35209   2.41606   2.43028   2.48181   2.53063
  Beta virt. eigenvalues --    2.54142   2.59394   2.63946   2.66736   2.72968
  Beta virt. eigenvalues --    2.74520   2.76314   2.84598   2.88358   2.92787
  Beta virt. eigenvalues --    2.93058   2.95892   2.99604   3.01165   3.02616
  Beta virt. eigenvalues --    3.04905   3.08778   3.10633   3.12203   3.16152
  Beta virt. eigenvalues --    3.18552   3.20312   3.21732   3.26797   3.27585
  Beta virt. eigenvalues --    3.29312   3.31322   3.35200   3.38461   3.39646
  Beta virt. eigenvalues --    3.43370   3.44700   3.45604   3.49889   3.51161
  Beta virt. eigenvalues --    3.55096   3.56260   3.57370   3.62502   3.64053
  Beta virt. eigenvalues --    3.71316   3.72174   3.74232   3.74462   3.75766
  Beta virt. eigenvalues --    3.79731   3.80653   3.84614   3.86354   3.87791
  Beta virt. eigenvalues --    3.89151   3.90753   3.92996   3.93838   3.97092
  Beta virt. eigenvalues --    3.99635   4.00934   4.05411   4.06901   4.08577
  Beta virt. eigenvalues --    4.10452   4.13441   4.15806   4.19118   4.21105
  Beta virt. eigenvalues --    4.25168   4.28060   4.29046   4.34791   4.38574
  Beta virt. eigenvalues --    4.42085   4.44680   4.50784   4.57513   4.58962
  Beta virt. eigenvalues --    4.68100   4.71418   4.74426   4.78478   4.81956
  Beta virt. eigenvalues --    4.82457   4.85896   4.90124   4.95514   4.97651
  Beta virt. eigenvalues --    5.01380   5.02605   5.06144   5.07838   5.11957
  Beta virt. eigenvalues --    5.13506   5.16163   5.23498   5.33721   5.35476
  Beta virt. eigenvalues --    5.39561   5.45138   5.52033   5.57962   5.59047
  Beta virt. eigenvalues --    5.72033   5.75778   5.78440   5.86114   5.92660
  Beta virt. eigenvalues --    5.98216   6.12467   6.17977   6.20173   6.31573
  Beta virt. eigenvalues --    6.34926   6.37738   6.46298   6.48981   6.52842
  Beta virt. eigenvalues --    6.57761   6.61394   6.65997   6.67525   6.71301
  Beta virt. eigenvalues --    6.75427   6.79176   6.83981   6.87130   6.89638
  Beta virt. eigenvalues --    7.01964   7.13999   7.16561   7.21517   7.39126
  Beta virt. eigenvalues --    7.44280   7.58352  10.03006  11.22837  12.03275
  Beta virt. eigenvalues --   12.08889  12.88940
          Condensed to atoms (all electrons):
               1          2          3          4          5          6
     1  O    7.871280   0.000589  -0.007598   0.328155  -0.057538  -0.033476
     2  O    0.000589   7.901248   0.046609  -0.005539   0.001404   0.000456
     3  O   -0.007598   0.046609   8.122497  -0.004593  -0.081918  -0.000135
     4  C    0.328155  -0.005539  -0.004593   4.752701   0.294505   0.393792
     5  C   -0.057538   0.001404  -0.081918   0.294505   5.363088  -0.035453
     6  H   -0.033476   0.000456  -0.000135   0.393792  -0.035453   0.599260
     7  H   -0.045913   0.013592  -0.004751   0.406679  -0.063528  -0.052492
     8  H    0.000532  -0.022015   0.182913  -0.007823   0.210452   0.004464
     9  H    0.005976  -0.000755   0.001871  -0.034484   0.363264  -0.004093
    10  H    0.003698   0.001068  -0.000618  -0.033891   0.380746  -0.006680
    11  H    0.333880  -0.001586   0.020398  -0.044068  -0.000767   0.008122
    12  H    0.000122   0.308379  -0.027812  -0.000963   0.001081  -0.000022
               7          8          9         10         11         12
     1  O   -0.045913   0.000532   0.005976   0.003698   0.333880   0.000122
     2  O    0.013592  -0.022015  -0.000755   0.001068  -0.001586   0.308379
     3  O   -0.004751   0.182913   0.001871  -0.000618   0.020398  -0.027812
     4  C    0.406679  -0.007823  -0.034484  -0.033891  -0.044068  -0.000963
     5  C   -0.063528   0.210452   0.363264   0.380746  -0.000767   0.001081
     6  H   -0.052492   0.004464  -0.004093  -0.006680   0.008122  -0.000022
     7  H    0.634004  -0.007352   0.003979   0.009487  -0.008318  -0.001365
     8  H   -0.007352   0.435705  -0.012662  -0.012403   0.000010  -0.006329
     9  H    0.003979  -0.012662   0.565159  -0.024245   0.000076   0.000461
    10  H    0.009487  -0.012403  -0.024245   0.527003  -0.001398  -0.000062
    11  H   -0.008318   0.000010   0.000076  -0.001398   0.429420   0.000599
    12  H   -0.001365  -0.006329   0.000461  -0.000062   0.000599   0.449207
          Atomic-Atomic Spin Densities.
               1          2          3          4          5          6
     1  O    0.000083  -0.000032   0.000557   0.003718  -0.000316  -0.002193
     2  O   -0.000032   0.058037  -0.041611  -0.004359   0.016685   0.000366
     3  O    0.000557  -0.041611   0.534046   0.014461  -0.110269  -0.001135
     4  C    0.003718  -0.004359   0.014461  -0.024257  -0.047655   0.009592
     5  C   -0.000316   0.016685  -0.110269  -0.047655   0.760140  -0.017054
     6  H   -0.002193   0.000366  -0.001135   0.009592  -0.017054   0.056414
     7  H    0.000215  -0.002373   0.002214   0.008847  -0.006635  -0.004878
     8  H   -0.000386   0.010858  -0.048615  -0.006705   0.085764   0.000923
     9  H   -0.000088  -0.000985   0.004169   0.006509  -0.011058  -0.002724
    10  H    0.000481  -0.000351   0.003737   0.004029  -0.007179  -0.001737
    11  H   -0.000785   0.000617  -0.004108  -0.000824   0.002864   0.000889
    12  H    0.000008  -0.000092  -0.000549   0.000054  -0.000323   0.000002
               7          8          9         10         11         12
     1  O    0.000215  -0.000386  -0.000088   0.000481  -0.000785   0.000008
     2  O   -0.002373   0.010858  -0.000985  -0.000351   0.000617  -0.000092
     3  O    0.002214  -0.048615   0.004169   0.003737  -0.004108  -0.000549
     4  C    0.008847  -0.006705   0.006509   0.004029  -0.000824   0.000054
     5  C   -0.006635   0.085764  -0.011058  -0.007179   0.002864  -0.000323
     6  H   -0.004878   0.000923  -0.002724  -0.001737   0.000889   0.000002
     7  H    0.012506   0.000195   0.000768  -0.000071  -0.000617  -0.000028
     8  H    0.000195  -0.051069  -0.003627  -0.000668   0.001614   0.000298
     9  H    0.000768  -0.003627  -0.026385   0.005389  -0.000205  -0.000028
    10  H   -0.000071  -0.000668   0.005389  -0.031368  -0.000417   0.000002
    11  H   -0.000617   0.001614  -0.000205  -0.000417   0.002275  -0.000065
    12  H   -0.000028   0.000298  -0.000028   0.000002  -0.000065  -0.000584
 Mulliken charges and spin densities:
               1          2
     1  O   -0.399706   0.001261
     2  O   -0.243449   0.036760
     3  O   -0.246862   0.352897
     4  C   -0.044471  -0.036592
     5  C   -0.375338   0.664965
     6  H    0.126256   0.038466
     7  H    0.115978   0.010143
     8  H    0.234508  -0.011419
     9  H    0.135453  -0.028264
    10  H    0.157293  -0.028153
    11  H    0.263633   0.001239
    12  H    0.276704  -0.001305
 Sum of Mulliken charges =  -0.00000   1.00000
 Mulliken charges and spin densities with hydrogens summed into heavy atoms:
               1          2
     1  O   -0.136072   0.002500
     2  O    0.033255   0.035455
     3  O   -0.012354   0.341479
     4  C    0.197763   0.012017
     5  C   -0.082591   0.608548
 APT charges:
               1
     1  O   -0.358247
     2  O   -0.656915
     3  O   -0.200349
     4  C   -0.632691
     5  C   -0.796124
     6  H    0.461300
     7  H    0.253576
     8  H    0.199714
     9  H    0.385870
    10  H    0.385745
    11  H    0.292778
    12  H    0.665342
 Sum of APT charges =  -0.00000
 APT charges with hydrogens summed into heavy atoms:
               1
     1  O   -0.065469
     2  O    0.008427
     3  O   -0.000634
     4  C    0.082185
     5  C   -0.024509
 Electronic spatial extent (au):  <R**2>=            503.4024
 Charge=             -0.0000 electrons
 Dipole moment (field-independent basis, Debye):
    X=              1.2696    Y=              2.6203    Z=              1.4573  Tot=              3.2560
 Quadrupole moment (field-independent basis, Debye-Ang):
   XX=            -28.9895   YY=            -31.8140   ZZ=            -30.6211
   XY=             -1.5089   XZ=              1.5099   YZ=              0.7255
 Traceless Quadrupole moment (field-independent basis, Debye-Ang):
   XX=              1.4854   YY=             -1.3392   ZZ=             -0.1462
   XY=             -1.5089   XZ=              1.5099   YZ=              0.7255
 Octapole moment (field-independent basis, Debye-Ang**2):
  XXX=             25.7514  YYY=             -1.5420  ZZZ=             -0.6512  XYY=              5.7011
  XXY=              6.9251  XXZ=             11.4069  XZZ=              3.2520  YZZ=             -1.1902
  YYZ=             -1.1670  XYZ=              3.1325
 Hexadecapole moment (field-independent basis, Debye-Ang**3):
 XXXX=           -300.4040 YYYY=           -161.3567 ZZZZ=            -88.5543 XXXY=              5.0470
 XXXZ=             18.9415 YYYX=             -1.5305 YYYZ=              5.0992 ZZZX=              7.2492
 ZZZY=              0.1404 XXYY=            -95.2377 XXZZ=            -69.8514 YYZZ=            -39.1969
 XXYZ=              0.8390 YYXZ=              0.2380 ZZXY=             -0.0877
 N-N= 1.941958751645D+02 E-N=-1.107719698603D+03  KE= 3.043604604336D+02
  Exact polarizability:   0.000   0.000   0.000   0.000   0.000   0.000
 Approx polarizability:  60.673  -7.691  49.507  -0.640  -0.342  49.114
                          Isotropic Fermi Contact Couplings
        Atom                 a.u.       MegaHertz       Gauss      10(-4) cm-1
     1  O(17)              0.00771      -4.67640      -1.66866      -1.55988
     2  O(17)              0.00324      -1.96664      -0.70175      -0.65600
     3  O(17)              0.12196     -73.93043     -26.38022     -24.66054
     4  C(13)             -0.01899     -21.35297      -7.61927      -7.12259
     5  C(13)              0.17515     196.90715      70.26137      65.68116
     6  H(1)               0.02002      89.46728      31.92415      29.84307
     7  H(1)               0.00731      32.68416      11.66252      10.90226
     8  H(1)              -0.02698    -120.59060     -43.02973     -40.22470
     9  H(1)              -0.00449     -20.05988      -7.15786      -6.69126
    10  H(1)              -0.00487     -21.77655      -7.77041      -7.26387
    11  H(1)               0.00057       2.54717       0.90889       0.84965
    12  H(1)              -0.00067      -2.98857      -1.06640      -0.99688
 --------------------------------------------------------
       Center         ----  Spin Dipole Couplings  ----
                      3XX-RR        3YY-RR        3ZZ-RR
 --------------------------------------------------------
     1   Atom       -0.006783      0.015388     -0.008605
     2   Atom        0.119751      0.063336     -0.183087
     3   Atom        0.508130     -0.107225     -0.400904
     4   Atom        0.026968     -0.009746     -0.017222
     5   Atom        0.614231     -0.297813     -0.316418
     6   Atom        0.006353     -0.001683     -0.004669
     7   Atom       -0.005888      0.000587      0.005301
     8   Atom        0.118042     -0.020467     -0.097574
     9   Atom       -0.006052      0.015099     -0.009047
    10   Atom       -0.000194     -0.040799      0.040993
    11   Atom       -0.000846      0.009332     -0.008485
    12   Atom        0.007526     -0.005213     -0.002313
 --------------------------------------------------------
                        XY            XZ            YZ
 --------------------------------------------------------
     1   Atom       -0.002900     -0.001240      0.007472
     2   Atom       -0.214297     -0.071454      0.092358
     3   Atom       -1.056118     -0.823803      0.611704
     4   Atom        0.012414     -0.001213     -0.000912
     5   Atom       -0.254258     -0.211781      0.055982
     6   Atom        0.003076     -0.009051     -0.002645
     7   Atom       -0.000287     -0.002480     -0.011258
     8   Atom       -0.128615     -0.066745      0.036364
     9   Atom        0.003319      0.002750      0.048824
    10   Atom       -0.016071      0.020778     -0.013401
    11   Atom        0.006286      0.000336      0.003825
    12   Atom        0.001844      0.013753      0.003523
 --------------------------------------------------------


 ---------------------------------------------------------------------------------
              Anisotropic Spin Dipole Couplings in Principal Axis System
 ---------------------------------------------------------------------------------

       Atom             a.u.   MegaHertz   Gauss  10(-4) cm-1        Axes

              Baa    -0.0108     0.780     0.278     0.260  0.1073 -0.2619  0.9591
     1 O(17)  Bbb    -0.0071     0.516     0.184     0.172  0.9862  0.1500 -0.0694
              Bcc     0.0179    -1.297    -0.463    -0.433 -0.1257  0.9534  0.2744
 
              Baa    -0.2139    15.475     5.522     5.162  0.0003 -0.3159  0.9488
     2 O(17)  Bbb    -0.1193     8.635     3.081     2.880  0.6868  0.6897  0.2294
              Bcc     0.3332   -24.109    -8.603    -8.042  0.7269 -0.6515 -0.2172
 
              Baa    -0.9008    65.179    23.257    21.741  0.6658  0.7105  0.2278
     3 O(17)  Bbb    -0.8819    63.811    22.769    21.285  0.1786 -0.4482  0.8759
              Bcc     1.7826  -128.990   -46.027   -43.026  0.7244 -0.5425 -0.4253
 
              Baa    -0.0173    -2.326    -0.830    -0.776 -0.0115  0.1379  0.9904
     4 C(13)  Bbb    -0.0135    -1.809    -0.645    -0.603 -0.2944  0.9461 -0.1351
              Bcc     0.0308     4.135     1.475     1.379  0.9556  0.2931 -0.0297
 
              Baa    -0.3643   -48.888   -17.444   -16.307  0.1436  0.8984 -0.4150
     5 C(13)  Bbb    -0.3620   -48.580   -17.335   -16.205  0.2869  0.3635  0.8863
              Bcc     0.7263    97.468    34.779    32.512  0.9471 -0.2464 -0.2056
 
              Baa    -0.0098    -5.251    -1.874    -1.751  0.4695  0.1071  0.8764
     6 H(1)   Bbb    -0.0027    -1.446    -0.516    -0.482 -0.2877  0.9570  0.0372
              Bcc     0.0126     6.697     2.390     2.234  0.8348  0.2696 -0.4801
 
              Baa    -0.0095    -5.057    -1.805    -1.687  0.4580  0.6685  0.5860
     7 H(1)   Bbb    -0.0051    -2.730    -0.974    -0.911  0.8848 -0.4061 -0.2283
              Bcc     0.0146     7.787     2.779     2.598 -0.0854 -0.6231  0.7775
 
              Baa    -0.1166   -62.194   -22.192   -20.746  0.2779  0.0085  0.9606
     8 H(1)   Bbb    -0.0968   -51.673   -18.438   -17.236  0.4746  0.8682 -0.1450
              Bcc     0.2134   113.867    40.630    37.982  0.8352 -0.4962 -0.2373
 
              Baa    -0.0473   -25.220    -8.999    -8.413 -0.0029 -0.6163  0.7875
     9 H(1)   Bbb    -0.0064    -3.395    -1.211    -1.132  0.9974 -0.0585 -0.0421
              Bcc     0.0536    28.615    10.211     9.545  0.0720  0.7853  0.6149
 
              Baa    -0.0468   -24.988    -8.916    -8.335  0.2946  0.9526  0.0757
    10 H(1)   Bbb    -0.0065    -3.487    -1.244    -1.163  0.8655 -0.2324 -0.4439
              Bcc     0.0534    28.475    10.160     9.498  0.4052 -0.1962  0.8929
 
              Baa    -0.0094    -5.018    -1.791    -1.674  0.1410 -0.2432  0.9597
    11 H(1)   Bbb    -0.0035    -1.885    -0.672    -0.629  0.9000 -0.3724 -0.2266
              Bcc     0.0129     6.903     2.463     2.303  0.4125  0.8956  0.1664
 
              Baa    -0.0125    -6.660    -2.376    -2.222 -0.5313 -0.2565  0.8074
    12 H(1)   Bbb    -0.0053    -2.815    -1.005    -0.939 -0.2713  0.9544  0.1247
              Bcc     0.0178     9.475     3.381     3.161  0.8025  0.1528  0.5767
 

 ---------------------------------------------------------------------------------

 No NMR shielding tensors so no spin-rotation constants.
 Leave Link  601 at Sat Jun 22 13:15:49 2019, MaxMem=   671088640 cpu:              50.8 elap:               3.2
 (Enter /shared/centos7/gaussian/g16/l701.exe)
 SCFChk:  SCF convergence  4.62D-09 required  1.00D-08
 ... and contract with generalized density number  0.
 Compute integral second derivatives.
 Entering OneElI...
 Calculate overlap and kinetic energy integrals
    NBasis = 280  MinDer = 2  MaxDer = 2
 Requested accuracy = 0.1000D-12
 PrmmSu-InSpLW:  IPartL=    0 NPrtUS=   20 NPrtUL=    1 DoSpLW=F IThBeg=    0 IThEnd=   19 NThAct=   20.
 PrsmSu:  NPrtUS=  20 ThrOK=T IAlg=1 NPAlg=1 LenDen=           0 ISkipM=0 DoSpLW=F IThBeg=    0 IThEnd=   19.
 Prism:   IPart=     0 DynPar=F LinDyn=F Incr=           2.
 PRISM was handed    33427248 working-precision words and  4276 shell-pairs
 PRISM was handed    33427248 working-precision words and  4276 shell-pairs
 PRISM was handed    33427248 working-precision words and  4276 shell-pairs
 PRISM was handed    33427248 working-precision words and  4276 shell-pairs
 PRISM was handed    33427248 working-precision words and  4276 shell-pairs
 PRISM was handed    33427248 working-precision words and  4276 shell-pairs
 PRISM was handed    33427248 working-precision words and  4276 shell-pairs
 PRISM was handed    33427248 working-precision words and  4276 shell-pairs
 PRISM was handed    33427248 working-precision words and  4276 shell-pairs
 PRISM was handed    33427248 working-precision words and  4276 shell-pairs
 PRISM was handed    33427248 working-precision words and  4276 shell-pairs
 PRISM was handed    33427248 working-precision words and  4276 shell-pairs
 PRISM was handed    33427248 working-precision words and  4276 shell-pairs
 PRISM was handed    33427248 working-precision words and  4276 shell-pairs
 PRISM was handed    33427248 working-precision words and  4276 shell-pairs
 PRISM was handed    33427248 working-precision words and  4276 shell-pairs
 PRISM was handed    33427248 working-precision words and  4276 shell-pairs
 PRISM was handed    33427248 working-precision words and  4276 shell-pairs
 PRISM was handed    33427248 working-precision words and  4276 shell-pairs
 PRISM was handed    33427248 working-precision words and  4276 shell-pairs
 IPart=  4 NShTot=         234 NBatch=          48 AvBLen=         4.9
 IPart= 17 NShTot=         196 NBatch=          26 AvBLen=         7.5
 IPart=  8 NShTot=         209 NBatch=          33 AvBLen=         6.3
 IPart=  3 NShTot=         237 NBatch=          49 AvBLen=         4.8
 IPart=  0 NShTot=         256 NBatch=          67 AvBLen=         3.8
 IPart=  5 NShTot=         222 NBatch=          42 AvBLen=         5.3
 IPart= 19 NShTot=         195 NBatch=          26 AvBLen=         7.5
 IPart= 18 NShTot=         195 NBatch=          26 AvBLen=         7.5
 IPart=  9 NShTot=         206 NBatch=          32 AvBLen=         6.4
 IPart= 13 NShTot=         200 NBatch=          28 AvBLen=         7.1
 IPart=  2 NShTot=         243 NBatch=          54 AvBLen=         4.5
 IPart= 11 NShTot=         204 NBatch=          30 AvBLen=         6.8
 IPart= 14 NShTot=         199 NBatch=          28 AvBLen=         7.1
 IPart= 16 NShTot=         196 NBatch=          26 AvBLen=         7.5
 IPart= 10 NShTot=         204 NBatch=          30 AvBLen=         6.8
 IPart=  7 NShTot=         214 NBatch=          35 AvBLen=         6.1
 IPart=  6 NShTot=         216 NBatch=          37 AvBLen=         5.8
 IPart= 15 NShTot=         197 NBatch=          27 AvBLen=         7.3
 IPart= 12 NShTot=         203 NBatch=          30 AvBLen=         6.8
 IPart=  1 NShTot=         250 NBatch=          61 AvBLen=         4.1
 PrSmSu:  NxtVal=             41.
 Entering OneElI...
 Calculate potential energy integrals
    NBasis = 280  MinDer = 2  MaxDer = 2
 Requested accuracy = 0.1000D-12
 PrmmSu-InSpLW:  IPartL=    0 NPrtUS=   20 NPrtUL=    1 DoSpLW=F IThBeg=    0 IThEnd=   19 NThAct=   20.
 PrsmSu:  NPrtUS=  20 ThrOK=T IAlg=1 NPAlg=1 LenDen=           0 ISkipM=0 DoSpLW=F IThBeg=    0 IThEnd=   19.
 Prism:   IPart=     0 DynPar=F LinDyn=F Incr=          24.
 PRISM was handed    33445696 working-precision words and  4107 shell-pairs
 PRISM was handed    33445696 working-precision words and  4107 shell-pairs
 PRISM was handed    33445696 working-precision words and  4107 shell-pairs
 PRISM was handed    33445696 working-precision words and  4107 shell-pairs
 PRISM was handed    33445696 working-precision words and  4107 shell-pairs
 PRISM was handed    33445696 working-precision words and  4107 shell-pairs
 PRISM was handed    33445696 working-precision words and  4107 shell-pairs
 PRISM was handed    33445696 working-precision words and  4107 shell-pairs
 PRISM was handed    33445696 working-precision words and  4107 shell-pairs
 PRISM was handed    33445696 working-precision words and  4107 shell-pairs
 PRISM was handed    33445696 working-precision words and  4107 shell-pairs
 PRISM was handed    33445696 working-precision words and  4107 shell-pairs
 PRISM was handed    33445696 working-precision words and  4107 shell-pairs
 PRISM was handed    33445696 working-precision words and  4107 shell-pairs
 PRISM was handed    33445696 working-precision words and  4107 shell-pairs
 PRISM was handed    33445696 working-precision words and  4107 shell-pairs
 PRISM was handed    33445696 working-precision words and  4107 shell-pairs
 PRISM was handed    33445696 working-precision words and  4107 shell-pairs
 PRISM was handed    33445696 working-precision words and  4107 shell-pairs
 PRISM was handed    33445696 working-precision words and  4107 shell-pairs
 IPart=  4 NShTot=        2640 NBatch=         220 AvBLen=        12.0
 IPart=  5 NShTot=        2508 NBatch=         209 AvBLen=        12.0
 IPart= 14 NShTot=        2316 NBatch=         193 AvBLen=        12.0
 IPart= 11 NShTot=        2340 NBatch=         195 AvBLen=        12.0
 IPart= 17 NShTot=        2292 NBatch=         191 AvBLen=        12.0
 IPart= 16 NShTot=        2292 NBatch=         191 AvBLen=        12.0
 IPart= 15 NShTot=        2304 NBatch=         192 AvBLen=        12.0
 IPart= 18 NShTot=        2244 NBatch=         187 AvBLen=        12.0
 IPart= 10 NShTot=        2376 NBatch=         198 AvBLen=        12.0
 IPart=  7 NShTot=        2460 NBatch=         205 AvBLen=        12.0
 IPart=  6 NShTot=        2484 NBatch=         207 AvBLen=        12.0
 IPart=  9 NShTot=        2388 NBatch=         199 AvBLen=        12.0
 IPart= 13 NShTot=        2328 NBatch=         194 AvBLen=        12.0
 IPart=  8 NShTot=        2424 NBatch=         202 AvBLen=        12.0
 IPart= 19 NShTot=        2232 NBatch=         186 AvBLen=        12.0
 IPart=  0 NShTot=        3012 NBatch=         251 AvBLen=        12.0
 IPart=  3 NShTot=        2700 NBatch=         225 AvBLen=        12.0
 IPart=  1 NShTot=        2880 NBatch=         240 AvBLen=        12.0
 IPart=  2 NShTot=        2736 NBatch=         228 AvBLen=        12.0
 IPart= 12 NShTot=        2328 NBatch=         194 AvBLen=        12.0
 PrSmSu:  NxtVal=            481.
 Polarizability after L701:
                1             2             3 
      1  0.000000D+00
      2  0.000000D+00  0.000000D+00
      3  0.000000D+00  0.000000D+00  0.000000D+00
 Dipole Derivatives after L701:
                 1             2             3             4             5 
      1  -0.236188D+00  0.181959D+00 -0.180124D-01 -0.127628D+01 -0.543344D+00
      2   0.621673D+00 -0.312554D+00 -0.204291D+00 -0.106267D+00 -0.299876D+00
      3   0.368691D+00 -0.397774D-02 -0.525999D+00 -0.296158D+00 -0.213835D+00
                 6             7             8             9            10 
      1  -0.724989D+00  0.506225D-02 -0.170738D+00  0.222830D+00 -0.840250D+00
      2  -0.282770D-01  0.943301D-01 -0.376512D+00 -0.183878D-01  0.899383D-01
      3  -0.394587D+00 -0.789102D-01  0.520295D-01 -0.229596D+00  0.594537D-02
                11            12            13            14            15 
      1  -0.144567D+00  0.472971D+00 -0.407082D+00  0.321828D+00 -0.375090D+00
      2  -0.297576D+00 -0.407532D-01 -0.472829D-01 -0.117406D+01  0.814518D-01
      3   0.572317D-01 -0.760247D+00 -0.232074D+00 -0.153357D+00 -0.807230D+00
                16            17            18            19            20 
      1   0.959326D+00 -0.769691D-01 -0.305438D+00  0.298926D-01  0.248285D-01
      2  -0.475042D-01  0.148543D+00  0.470205D-01 -0.763579D-01  0.198957D+00
      3  -0.275748D+00  0.536636D-01  0.276031D+00  0.242802D+00 -0.121095D+00
                21            22            23            24            25 
      1  -0.172612D+00  0.806416D-01  0.651708D-01  0.957211D-01  0.697213D-01
      2  -0.721654D-01  0.622758D-01  0.307402D+00  0.101987D-01  0.109180D+00
      3   0.531879D+00  0.745284D-01 -0.392965D-01  0.211099D+00  0.289871D-01
                26            27            28            29            30 
      1  -0.196198D+00 -0.150910D+00  0.313221D+00 -0.117796D+00  0.449665D+00
      2   0.811026D+00  0.535810D+00 -0.227138D+00  0.269786D+00 -0.556097D+00
      3   0.222008D+00  0.276863D+00  0.182193D+00 -0.112510D+00  0.574227D+00
                31            32            33            34            35 
      1   0.874938D-01  0.288396D-02  0.936812D-01  0.121444D+01  0.652943D+00
      2  -0.542550D+00  0.368153D+00  0.253266D+00  0.697020D-01  0.356711D+00
      3  -0.299220D+00  0.776854D-01  0.422687D+00  0.278964D+00  0.181453D+00
                36 
      1   0.412183D+00
      2  -0.777440D-02
      3   0.424872D+00
 Hessian after L701:
                1             2             3             4             5 
      1  0.851058D+01
      2 -0.289729D+00  0.903431D+01
      3  0.169934D+01 -0.405874D+01  0.109885D+02
      4  0.523268D+00  0.164477D+00  0.212312D+00  0.726394D+01
      5  0.203774D+00 -0.261781D+00  0.466228D-01 -0.491060D+00  0.995720D+01
      6  0.251780D+00  0.381402D-01 -0.245933D+00 -0.378832D+01  0.235558D+01
      7  0.543319D+00  0.361034D+00 -0.140530D+00 -0.531075D+01 -0.881997D+00
      8  0.428500D+00 -0.203023D+00 -0.666936D-01 -0.858434D+00 -0.456170D+01
      9 -0.692292D-01 -0.223336D-01 -0.348833D+00  0.217536D+01 -0.309080D+01
     10 -0.766990D+01  0.704341D-01 -0.112864D+00  0.391111D+00 -0.161717D+00
     11  0.247853D+00 -0.280160D+01  0.419378D+01 -0.173525D+00 -0.228972D+00
     12  0.112806D-01  0.420077D+01 -0.443522D+01  0.129102D+00 -0.290840D-01
     13 -0.597355D-01  0.253751D+00  0.234403D-01  0.286247D+00 -0.348397D+00
     14  0.219599D+00  0.408575D+00 -0.273682D+00 -0.315676D+00 -0.101830D+00
     15  0.285874D-01 -0.154958D+00 -0.278782D+00  0.455319D-01 -0.346092D-01
     16  0.264079D+00 -0.779459D-01 -0.247210D-01  0.561180D-01 -0.144114D-01
     17 -0.346993D-01 -0.739190D-01 -0.185067D+00 -0.114701D-01 -0.156915D-01
     18 -0.268931D-01 -0.157903D+00 -0.183697D+00 -0.161818D-01  0.362073D-02
     19  0.232885D+00 -0.585607D-01  0.135930D+00  0.904817D-01  0.693381D-02
     20 -0.892036D-01 -0.116899D+00 -0.295805D+00  0.238964D-01 -0.109990D+00
     21  0.115938D+00 -0.321197D+00  0.159772D+00 -0.126332D+00  0.235266D-02
     22 -0.236347D-01  0.532676D-01 -0.122116D-01 -0.544287D-01 -0.317049D-02
     23  0.513857D-01  0.338927D-01 -0.183324D-01  0.534016D-01  0.136349D+00
     24 -0.469340D-02 -0.131387D-01 -0.422707D-01 -0.138290D+00  0.767220D-01
     25 -0.403949D-01  0.364091D-01  0.183535D-01 -0.970992D-03 -0.264208D-01
     26  0.543242D-01  0.142099D+00  0.834339D-01 -0.414417D-01  0.309216D-01
     27  0.268719D-01  0.900547D-01 -0.163237D-01 -0.104136D-01  0.182227D-01
     28 -0.613486D-01  0.119562D-01  0.234243D-02  0.275669D-01 -0.346011D-01
     29  0.530559D-01  0.813730D-01 -0.105770D-01 -0.344545D-01 -0.799479D-03
     30 -0.215118D-01 -0.640558D-01 -0.390442D-01  0.471108D-01 -0.347540D-01
     31 -0.227214D+01 -0.545184D+00 -0.181331D+01 -0.218049D-01  0.477253D-02
     32 -0.876636D+00 -0.623973D+01  0.581003D+00  0.315057D-01 -0.281692D-01
     33 -0.203991D+01  0.456516D+00 -0.554928D+01  0.677943D-01  0.248188D-01
     34  0.530228D-01  0.200911D-01  0.119114D-01 -0.325078D+01  0.174630D+01
     35  0.317751D-01 -0.329464D-02  0.404896D-02  0.165278D+01 -0.481554D+01
     36  0.284326D-01  0.683772D-02 -0.888067D-02  0.140233D+01  0.661308D+00
                6             7             8             9            10 
      6  0.540882D+01
      7  0.225876D+01  0.528436D+01
      8 -0.305930D+01  0.224181D+01  0.685386D+01
      9  0.664632D+00 -0.128674D+01  0.263884D+01  0.315776D+01
     10 -0.112355D-01  0.323930D+00  0.784024D-01 -0.324938D+00  0.172328D+02
     11 -0.821831D-03  0.798247D-01 -0.285606D+00 -0.432486D-01 -0.978189D+00
     12 -0.270064D+00 -0.300888D+00 -0.363474D-01 -0.125965D+00  0.372511D+00
     13  0.659660D-01  0.332783D-01 -0.321814D+00 -0.337222D-01 -0.521094D+01
     14 -0.228635D-01 -0.151943D+00  0.284472D-01 -0.294267D-02  0.145765D+01
     15 -0.319834D+00 -0.750328D-01  0.724978D-01 -0.163088D+00 -0.544776D+00
     16 -0.943212D-02  0.446472D-01 -0.390062D-02 -0.215590D-01 -0.188710D+01
     17 -0.141623D-02 -0.117975D-02 -0.185155D-01  0.422446D-02 -0.292873D+00
     18 -0.127547D-01 -0.302506D-01  0.321265D-02 -0.549463D-02 -0.865874D+00
     19 -0.514999D-01 -0.330715D-03  0.913797D-02 -0.213229D-01 -0.340130D+01
     20 -0.109087D-01  0.195877D-01 -0.159185D-01 -0.176383D-01 -0.283429D+00
     21 -0.627493D-01 -0.614748D-01 -0.121568D-01  0.320540D-01  0.132714D+01
     22 -0.140974D+00 -0.124499D+01 -0.168582D+01 -0.473393D+00  0.402795D-01
     23  0.104719D+00 -0.190322D+01 -0.184658D+01  0.349982D+00  0.269286D-01
     24 -0.392911D-01 -0.440465D+00  0.318495D+00 -0.300978D+01 -0.496277D-02
     25 -0.859419D-02  0.767394D-02 -0.621329D-01 -0.326983D-01  0.554285D-01
     26  0.111754D-01 -0.769416D-01  0.520430D-01  0.603171D-01 -0.490428D-01
     27 -0.175925D-01 -0.531564D-01  0.658378D-01 -0.291302D-02 -0.151651D-01
     28  0.282711D-01  0.810782D-01 -0.595646D-01  0.216528D-01  0.695388D-01
     29 -0.197995D-01 -0.519371D-01 -0.165819D-01 -0.927142D-02 -0.220245D-01
     30  0.642027D-02  0.557062D-01 -0.285298D-01 -0.257455D-01  0.412342D-01
     31  0.184240D-01  0.275380D-01  0.121809D+00 -0.367221D-01  0.366020D-01
     32  0.217824D-01  0.217409D+00 -0.373635D-01 -0.262909D-01  0.138817D+00
     33 -0.553956D-02  0.186887D-01  0.932761D-02 -0.169305D+00  0.134423D+00
     34  0.138686D+01  0.210233D+00  0.111999D+00  0.103311D+00  0.195901D-01
     35  0.583715D+00  0.147552D+00  0.509356D-01  0.159161D+00  0.150465D-01
     36 -0.510611D+01  0.553833D-01  0.948175D-01 -0.332236D-02  0.450880D-02
               11            12            13            14            15 
     11  0.131847D+02
     12 -0.248519D+01  0.152929D+02
     13  0.132099D+01 -0.530707D+00  0.116905D+02
     14 -0.199120D+01 -0.147109D+01 -0.593493D+00  0.936637D+01
     15 -0.144151D+01 -0.506908D+01  0.179240D+00  0.754634D+00  0.122344D+02
     16 -0.264451D+00 -0.827437D+00  0.371478D-01 -0.252888D-01 -0.140007D-01
     17 -0.379088D+01  0.139620D+00 -0.376194D-01  0.294519D-01  0.215319D-02
     18  0.132367D+00 -0.343504D+01 -0.936159D-02 -0.543696D-02  0.451876D-01
     19 -0.244481D+00  0.106983D+01  0.181265D+00  0.524096D-01 -0.240726D-01
     20 -0.403226D+01 -0.371063D+00  0.823539D-01 -0.100922D+00  0.230583D+00
     21 -0.387401D+00 -0.206816D+01 -0.704261D-01  0.279277D+00 -0.501306D-01
     22  0.511223D-01 -0.912568D-02 -0.876583D-01 -0.536399D+00 -0.554579D+00
     23 -0.225823D-01  0.157298D-02 -0.353825D+00 -0.195929D+01  0.111894D+00
     24 -0.118661D-01 -0.403166D-01 -0.589565D+00  0.177616D+00 -0.187203D+01
     25 -0.281719D-01 -0.184929D-01 -0.352208D+01  0.166931D+00  0.157610D+00
     26 -0.112267D+00 -0.154728D-01  0.244875D+00 -0.213327D+01  0.109832D+01
     27 -0.733185D-02  0.946878D-01  0.197439D+00  0.103057D+01 -0.273918D+01
     28 -0.206910D-01  0.445416D-01 -0.340102D+01 -0.199229D+00  0.796202D+00
     29 -0.161692D-01  0.996120D-01 -0.237801D+00 -0.357137D+01 -0.609796D+00
     30  0.419173D-01  0.503691D-02  0.734954D+00 -0.448346D+00 -0.173375D+01
[...]
    D3       -0.95732   0.00000   0.00000  -0.00001  -0.00001  -0.95733
    D4       -1.69888   0.00000   0.00000   0.00013   0.00013  -1.69875
    D5       -0.20666   0.00000   0.00000  -0.00333  -0.00333  -0.21000
    D6       -1.11901   0.00000   0.00000   0.00002   0.00002  -1.11899
    D7       -3.10469   0.00000   0.00000   0.00001   0.00001  -3.10468
    D8        0.79648   0.00000   0.00000   0.00001   0.00001   0.79650
    D9        3.10231   0.00000   0.00000  -0.00000  -0.00000   3.10231
   D10        1.11664   0.00000   0.00000  -0.00001  -0.00001   1.11662
   D11       -1.26538  -0.00000   0.00000  -0.00000  -0.00000  -1.26538
   D12        1.06495   0.00000   0.00000   0.00002   0.00002   1.06497
   D13       -0.92072   0.00000   0.00000   0.00000   0.00000  -0.92072
   D14        2.98045  -0.00000   0.00000   0.00001   0.00001   2.98046
   D15        0.11256   0.00000   0.00000   0.00293   0.00293   0.11549
   D16        2.24333   0.00000   0.00000   0.00292   0.00292   2.24625
   D17       -1.96737   0.00000   0.00000   0.00291   0.00291  -1.96445
         Item               Value     Threshold  Converged?
 Maximum Force            0.000020     0.000450     YES
 RMS     Force            0.000005     0.000300     YES
 Maximum Displacement     0.000473     0.001800     YES
 RMS     Displacement     0.000154     0.001200     YES
 Predicted change in Energy=-4.244802D-09
 Optimization completed.
    -- Stationary point found.
                           ----------------------------
                           !   Optimized Parameters   !
                           ! (Angstroms and Degrees)  !
 --------------------------                            --------------------------
 ! Name  Definition              Value          Derivative Info.                !
 --------------------------------------------------------------------------------
 ! R1    R(1,4)                  1.4068         -DE/DX =    0.0                 !
 ! R2    R(1,11)                 0.9631         -DE/DX =    0.0                 !
 ! R3    R(2,3)                  1.3906         -DE/DX =    0.0                 !
 ! R4    R(2,12)                 0.9651         -DE/DX =    0.0                 !
 ! R5    R(3,8)                  1.185          -DE/DX =    0.0                 !
 ! R6    R(4,5)                  1.4998         -DE/DX =    0.0                 !
 ! R7    R(4,6)                  1.0952         -DE/DX =    0.0                 !
 ! R8    R(4,7)                  1.0966         -DE/DX =    0.0                 !
 ! R9    R(5,8)                  1.3341         -DE/DX =    0.0                 !
 ! R10   R(5,9)                  1.087          -DE/DX =    0.0                 !
 ! R11   R(5,10)                 1.0868         -DE/DX =    0.0                 !
 ! A1    A(4,1,11)             107.3007         -DE/DX =    0.0                 !
 ! A2    A(3,2,12)             103.5333         -DE/DX =    0.0                 !
 ! A3    A(2,3,8)              104.1833         -DE/DX =    0.0                 !
 ! A4    A(1,4,5)              112.5276         -DE/DX =    0.0                 !
 ! A5    A(1,4,6)              106.5785         -DE/DX =    0.0                 !
 ! A6    A(1,4,7)              111.4337         -DE/DX =    0.0                 !
 ! A7    A(5,4,6)              109.203          -DE/DX =    0.0                 !
 ! A8    A(5,4,7)              110.3199         -DE/DX =    0.0                 !
 ! A9    A(6,4,7)              106.5072         -DE/DX =    0.0                 !
 ! A10   A(4,5,8)              104.1991         -DE/DX =    0.0                 !
 ! A11   A(4,5,9)              116.0963         -DE/DX =    0.0                 !
 ! A12   A(4,5,10)             114.5339         -DE/DX =    0.0                 !
 ! A13   A(8,5,9)              104.0655         -DE/DX =    0.0                 !
 ! A14   A(8,5,10)             101.3124         -DE/DX =    0.0                 !
 ! A15   A(9,5,10)             114.1896         -DE/DX =    0.0                 !
 ! A16   A(3,8,5)              171.4509         -DE/DX =    0.0                 !
 ! D1    D(11,1,4,5)            69.671          -DE/DX =    0.0                 !
 ! D2    D(11,1,4,6)          -170.6583         -DE/DX =    0.0                 !
 ! D3    D(11,1,4,7)           -54.8503         -DE/DX =    0.0                 !
 ! D4    D(12,2,3,8)           -97.3384         -DE/DX =    0.0                 !
 ! D5    D(2,3,8,5)            -11.841          -DE/DX =    0.0                 !
 ! D6    D(1,4,5,8)            -64.1145         -DE/DX =    0.0                 !
 ! D7    D(1,4,5,9)           -177.8855         -DE/DX =    0.0                 !
 ! D8    D(1,4,5,10)            45.6352         -DE/DX =    0.0                 !
 ! D9    D(6,4,5,8)            177.7495         -DE/DX =    0.0                 !
 ! D10   D(6,4,5,9)             63.9785         -DE/DX =    0.0                 !
 ! D11   D(6,4,5,10)           -72.5008         -DE/DX =    0.0                 !
 ! D12   D(7,4,5,8)             61.0173         -DE/DX =    0.0                 !
 ! D13   D(7,4,5,9)            -52.7537         -DE/DX =    0.0                 !
 ! D14   D(7,4,5,10)           170.767          -DE/DX =    0.0                 !
 ! D15   D(4,5,8,3)              6.4494         -DE/DX =    0.0                 !
 ! D16   D(9,5,8,3)            128.5334         -DE/DX =    0.0                 !
 ! D17   D(10,5,8,3)          -112.7217         -DE/DX =    0.0                 !
 --------------------------------------------------------------------------------
 GradGradGradGradGradGradGradGradGradGradGradGradGradGradGradGradGradGrad

 Leave Link  103 at Sat Jun 22 14:05:09 2019, MaxMem=   671088640 cpu:              45.4 elap:               2.8
 (Enter /shared/centos7/gaussian/g16/l9999.exe)

 ----------------------------------------------------------------------

 Electric dipole moment (input orientation):
 (Debye = 10**-18 statcoulomb cm , SI units = C m)
                  (au)            (Debye)         (10**-30 SI)
   Tot        0.111029D+01      0.282207D+01      0.941341D+01
   x         -0.132022D+00     -0.335567D+00     -0.111933D+01
   y          0.556146D+00      0.141358D+01      0.471520D+01
   z         -0.951846D+00     -0.241935D+01     -0.807009D+01

 Dipole polarizability, Alpha (input orientation).
 (esu units = cm**3 , SI units = C**2 m**2 J**-1)
 Alpha(0;0):
               (au)            (10**-24 esu)      (10**-40 SI)
   iso        0.484664D+02      0.718198D+01      0.799104D+01
   aniso      0.259340D+02      0.384302D+01      0.427594D+01
   xx         0.623274D+02      0.923597D+01      0.102764D+02
   yx         0.776528D+01      0.115070D+01      0.128032D+01
   yy         0.447494D+02      0.663118D+01      0.737818D+01
   zx        -0.269947D+01     -0.400021D+00     -0.445083D+00
   zy         0.147762D+01      0.218960D+00      0.243626D+00
   zz         0.383225D+02      0.567881D+01      0.631853D+01

 ----------------------------------------------------------------------

 Dipole orientation:
     8          2.06829896          1.47190261         -1.78549431
     8         -3.20407150          1.05907536         -0.04725617
     8         -3.13871471         -1.56614533          0.04875753
     6          2.42401265          0.44419067          0.64044501
     6          1.49612631         -2.22671929          0.83498543
     1          4.46049597          0.48569119          1.00654043
     1          1.53949788          1.62131531          2.09869810
     1         -0.98974101         -2.04700178          0.45515194
     1          1.65625410         -3.10643974          2.68422470
     1          2.05539910         -3.43954960         -0.72515280
     1          0.27829854          1.70521652         -2.01731840
     1         -3.75207082          1.53382818          1.62616622

 Electric dipole moment (dipole orientation):
 (Debye = 10**-18 statcoulomb cm , SI units = C m)
                  (au)            (Debye)         (10**-30 SI)
   Tot        0.111029D+01      0.282207D+01      0.941341D+01
   x          0.000000D+00      0.000000D+00      0.000000D+00
   y          0.000000D+00      0.000000D+00      0.000000D+00
   z          0.111029D+01      0.282207D+01      0.941341D+01

 Dipole polarizability, Alpha (dipole orientation).
 (esu units = cm**3 , SI units = C**2 m**2 J**-1)
 Alpha(0;0):
               (au)            (10**-24 esu)      (10**-40 SI)
   iso        0.484664D+02      0.718198D+01      0.799104D+01
   aniso      0.259340D+02      0.384302D+01      0.427594D+01
   xx         0.630900D+02      0.934897D+01      0.104021D+02
   yx        -0.615551D+01     -0.912153D+00     -0.101491D+01
   yy         0.447793D+02      0.663561D+01      0.738311D+01
   zx         0.323085D+01      0.478763D+00      0.532695D+00
   zy        -0.152904D+01     -0.226580D+00     -0.252104D+00
   zz         0.375300D+02      0.556138D+01      0.618787D+01

 ----------------------------------------------------------------------

 Test job not archived.
 1\1\GINC-C0215\Freq\UM062X\CC-pVTZ\C2H7O3(2)\HARMS.N\22-Jun-2019\0\\#P
  Geom=AllCheck Guess=TCheck SCRF=Check Test GenChk UM062X/CC-pVTZ Freq
 \\Gaussian input prepared by ASE\\0,2\O,1.1735357467,-1.1118505305,0.2
 897142692\O,-1.697613124,-0.551628048,-0.0576753342\O,-1.6247822916,0.
 6764691534,0.5905117866\C,1.2251300876,0.0075943711,-0.5608128063\C,0.
 7709362784,1.265863756,0.1172855407\H,2.2708463895,0.120198892,-0.8660
 394053\H,0.6488939292,-0.1596408631,-1.4787257597\H,-0.5136631011,1.04
 07422824,0.3983839783\H,0.7535954988,2.1613915559,-0.4985353276\H,1.18
 33889332,1.4169154211,1.1113496307\H,0.2441471565,-1.3104613163,0.4456
 734951\H,-2.0987485032,-0.334649674,-0.9082020676\\Version=EM64L-G16Re
 vA.03\State=2-A\HF=-305.9008731\S2=0.759747\S2-1=0.\S2A=0.750046\RMSD=
 2.407e-09\RMSF=3.968e-06\ZeroPoint=0.0917453\Thermal=0.0986012\Dipole=
 -0.1320224,0.556146,-0.951846\DipoleDeriv=-0.314755,-0.0277093,0.04275
 07,0.0800278,-0.8339967,0.1541209,-0.0185197,0.1964564,-0.6125475,-0.3
 799822,-0.0198849,0.0425819,-0.6340911,-0.5140989,-0.0045132,-0.389782
 7,-0.2907825,-0.1978879,0.324711,0.2180465,-0.0597262,0.8810257,0.2349
 794,-0.0061002,0.2717337,0.2549263,-0.1759396,-0.0439473,0.001546,0.06
 17141,-0.1638443,0.6071707,-0.1655524,0.1123016,-0.194834,0.4023033,0.
 86851,0.3071114,-0.0825542,0.057338,-0.0262892,-0.0323494,-0.2083792,-
 0.1511649,0.0802906,-0.0635125,-0.0228706,0.0657003,0.1182082,0.039934
 ,-0.0141439,0.0485286,0.0283591,0.0512927,0.0248734,-0.0016093,-0.1331
 149,-0.0065127,-0.0217794,-0.0192557,-0.0719193,0.0263946,-0.1298307,-
 0.9024573,-0.3504398,0.1154547,-0.3520377,-0.0077329,0.0222055,0.17173
 65,0.0398795,0.1054207,-0.0316691,-0.0612072,0.0120387,0.0210604,-0.05
 25293,0.0433024,-0.0015588,0.0759152,0.0068295,-0.0844367,-0.0527736,-
 0.0453773,-0.0126165,0.0363905,-0.00178,0.049033,-0.0162825,-0.0342186
 ,0.2355695,-0.0331351,-0.0057519,0.0042603,0.3298858,0.0054746,-0.0099
 282,-0.0130607,0.2803317,0.3670961,0.0429258,-0.013716,0.0071819,0.208
 066,0.0185913,0.0467543,0.0441935,0.2239559\Polar=62.3273847,7.7652796
 ,44.7493938,-2.6994744,1.4776179,38.3225246\Quadrupole=-0.677553,-0.71
 57368,1.3932898,3.2746499,2.1106611,0.3250568\PG=C01 [X(C2H7O3)]\NImag
 =1\\0.58062625,0.09408725,0.29292767,-0.07373019,-0.17613657,0.1885438
 0,-0.00563207,0.00045832,-0.00140291,0.14062236,0.00409572,0.00451838,
 -0.00095337,-0.03867494,0.33407478,0.00017019,0.00337135,-0.00069071,0
 .21451496,-0.00552714,0.49447965,-0.00127953,-0.00172934,0.00049945,-0
 .04081394,0.01666237,-0.00021040,0.09677058,-0.00392972,-0.00346371,0.
 00166855,-0.01257635,-0.22541486,-0.12720191,-0.01496498,0.23729218,-0
 .00230434,-0.00238391,0.00193702,-0.01727736,-0.08987178,-0.10121877,-
 0.02114559,0.14466028,0.13786661,-0.09219681,0.01282726,-0.01381777,0.
 00262072,-0.00667772,-0.00585943,0.00852238,0.01334496,0.00507829,0.57
 580252,-0.02277223,-0.18171254,0.09497948,0.00218894,-0.00780615,-0.00
 391346,0.00171018,0.00820677,0.00557408,0.02255772,0.47077898,0.014723
 39,0.09356596,-0.13878724,-0.00098190,0.00217448,0.00040225,-0.0032959
 6,-0.00296854,-0.00171150,0.01408983,-0.00278924,0.54608971,-0.0004060
 9,-0.00215928,0.00094527,-0.00349603,0.03154844,0.02124960,-0.12892134
 ,-0.07797245,0.00394750,-0.06654101,0.04170583,0.00975270,0.20165576,0
 .01003802,-0.04568099,-0.00055516,-0.00161395,0.00313019,0.00212934,-0
 .02284529,-0.00718867,0.00174538,0.04176668,-0.16023730,-0.05363322,-0
 .03922111,0.52947974,-0.00554499,0.03181875,0.00942200,0.00199778,-0.0
 0711515,-0.00593243,0.03018583,0.01848250,0.00190093,0.01785244,-0.062
 91546,-0.11872105,0.08912655,-0.02991981,0.57238178,0.00021233,-0.0044
 3715,0.00292639,-0.00062488,0.00043310,0.00090157,-0.00062190,-0.00144
 617,-0.00075711,-0.28123116,-0.02605760,0.06127647,-0.01192773,0.00437
 433,0.00468650,0.30536414,-0.03330124,-0.01285228,0.01548830,-0.000844
 33,0.00292043,0.00218665,-0.00178624,-0.00412809,-0.00189520,-0.008884
 19,-0.04278542,0.00079123,0.02329053,-0.00105175,-0.00814994,0.0246997
 0,0.06019064,0.02429607,0.01129585,-0.00956993,-0.00030633,0.00086253,
 0.00118247,-0.00033900,-0.00133947,-0.00059898,0.05758978,0.00662257,-
 0.06123419,0.01668805,-0.00478468,-0.00554756,-0.07248862,-0.01232782,
 0.07188026,0.00554555,0.00317886,0.00161836,-0.00042324,0.00021795,0.0
 0066179,-0.00034062,-0.00098718,-0.00061055,-0.12212978,-0.02435547,-0
 .11059948,0.00501230,0.00290030,0.01090306,-0.01740002,-0.00728284,-0.
 02565202,0.12794114,0.01545350,-0.00491983,0.03464061,-0.00035012,0.00
 059129,0.00050142,0.00010746,-0.00095040,-0.00036799,-0.02817653,-0.05
 863368,-0.04002644,-0.01466112,-0.00412028,-0.02489124,-0.00094455,0.0
 0084435,-0.00244443,0.02407330,0.06893775,-0.00835509,0.01219592,-0.02
 390897,-0.00083613,0.00084178,0.00171379,0.00020838,-0.00117101,-0.000
 56641,-0.10721226,-0.03714273,-0.21076115,-0.00766386,-0.00708988,-0.0
 1387068,0.00300408,0.00064637,0.00689745,0.12105706,0.03504286,0.24038
 177,0.00495254,0.00185319,-0.00181439,0.00807896,-0.04896650,-0.032501
 99,0.04856799,0.08133320,0.02143401,-0.03127823,-0.00410008,0.01111249
 ,0.09717886,0.01576736,-0.03029527,0.00281293,0.00563785,0.00121120,0.
 00169470,-0.00023420,-0.00079396,-0.09319047,0.00094194,0.00205173,-0.
 00014663,-0.02055182,-0.03177047,-0.01227545,0.04081657,0.00695953,-0.
 00588581,0.00527106,-0.00230693,-0.00214291,0.04050651,-0.01812976,-0.
 01049723,0.00197044,-0.00019965,-0.00087954,0.00056132,0.00018987,0.00
 001309,-0.04657182,0.05005980,-0.00119518,0.00040265,-0.00053563,-0.01
 262116,0.00112380,0.00315305,0.00411817,-0.01861178,-0.02198213,0.0121
 1443,-0.00092411,-0.00419470,-0.02060364,-0.00301081,-0.01619684,0.000
 17454,-0.00196202,-0.00036818,0.00039497,-0.00010240,-0.00020060,0.020
 93821,0.02528124,0.04311707,0.00119358,0.00320627,0.00125365,-0.000528
 03,-0.00445737,-0.00252519,0.00666561,0.00717011,0.00123184,0.00227571
 ,0.00669103,-0.00907352,-0.02613916,-0.00122580,0.00028126,0.00019602,
 -0.00131232,-0.00027258,0.00020800,0.00004857,0.00088257,-0.01279176,-
 0.01493689,0.00953305,0.02703520,0.00184550,-0.00708252,-0.00199081,-0
 .00026941,0.00020973,0.00007950,-0.00046688,0.00009099,-0.00065401,-0.
 00373145,-0.01048165,0.01906553,0.00760720,-0.24116112,0.12901383,0.00
 058889,0.00028619,-0.00024661,-0.00070523,0.00063377,-0.00087906,0.000
 78191,-0.00274677,0.00192979,-0.00596749,0.25356155,0.00120140,-0.0041
 0458,0.00065503,-0.00018381,0.00006283,0.00015096,0.00062483,-0.000665
 39,-0.00000210,-0.00126952,-0.01009448,0.01137460,-0.00693154,0.130443
 30,-0.14512819,0.00028134,0.00065480,0.00009158,-0.00078565,0.00103557
 ,0.00008024,-0.00021442,0.00293308,-0.00245047,0.00476528,-0.14212188,
 0.14541433,-0.00030014,-0.00056036,-0.00059356,0.00052872,-0.00435588,
 -0.00309275,0.00753697,0.00732167,0.00184827,0.00758210,0.00277754,0.0
 1388638,-0.07111691,-0.01159507,-0.11525030,0.00054853,-0.00116877,-0.
 00068884,-0.00031363,0.00266033,0.00044854,-0.02130046,-0.00647311,-0.
 01047932,0.00243457,-0.00040828,0.00236611,0.07538617,-0.00049947,0.00
 369909,0.00200002,-0.00021202,-0.00092929,-0.00048834,0.00180833,0.001
 11307,0.00016794,-0.01114166,-0.00104832,-0.02405083,-0.01009135,-0.05
 594455,-0.03526337,0.00016821,0.00027876,0.00022848,0.00180648,-0.0043
 3306,-0.00263101,-0.00399237,-0.00098427,-0.00183627,0.01035193,0.0063
 6686,0.02192540,0.01218130,0.05221639,0.00014635,0.00011584,0.00284303
 ,-0.00020451,0.00221360,0.00172795,-0.00385527,-0.00370718,0.00015282,
 -0.00800740,-0.00006705,-0.01371054,-0.10309940,-0.03501033,-0.2807441
 2,0.00006578,0.00035427,0.00037609,0.00189058,-0.00245294,-0.00003366,
 0.00755471,0.00247789,-0.00075920,-0.00658454,-0.00418116,-0.00993367,
 0.11128058,0.04011294,0.30056882,-0.49202706,-0.10638189,0.08329334,-0
 .00334905,-0.00176496,-0.00202288,0.00223454,0.00394196,0.00241633,-0.
 00295002,-0.00115147,0.00095514,0.00487855,0.00138300,-0.00278624,0.00
 234973,0.00095868,-0.00046576,0.00058181,0.00193961,-0.00179031,-0.003
 94696,-0.00138872,0.00061045,-0.00091933,0.00084511,0.00019414,-0.0007
 5257,-0.00045359,0.00051118,0.49327112,-0.06651909,-0.04744165,0.03128
 427,-0.00121230,-0.00015696,-0.00025370,0.00106447,-0.00145096,-0.0012
 7083,-0.03658389,-0.01351648,0.00955048,-0.00165760,0.00056017,0.00021
 609,0.00055815,-0.00372815,0.00301736,0.00065012,0.00142744,0.00011281
 ,0.00017481,-0.00187448,0.00031567,0.00066021,0.00044019,-0.00010782,-
 0.00015412,-0.00029458,-0.00011063,0.10337114,0.06555899,0.05014408,0.
 03035511,-0.02972916,0.00230733,-0.00178712,-0.00185473,0.00092338,0.0
 0141308,0.00007814,0.02843448,0.01007508,-0.00912539,0.00012377,0.0000
 8108,0.00089501,0.00004016,0.00459572,-0.00290632,0.00122492,-0.000834
 70,0.00051691,-0.00160420,-0.00062742,0.00108575,0.00008604,-0.0000808
 9,-0.00025155,-0.00044598,-0.00026379,-0.00004976,-0.08057881,-0.04325
 864,0.04122259,-0.00068855,-0.00034313,0.00082236,-0.09698351,0.051939
 78,-0.19128548,0.00167925,-0.00123506,0.00613872,-0.00047641,0.0008056
 2,-0.00184555,-0.00017720,0.00027153,-0.00115663,0.00032202,-0.0000068
 3,0.00042806,-0.00037621,0.00008375,0.00105098,-0.00077811,-0.00014548
 ,-0.00298450,0.00036958,-0.00011986,-0.00004817,-0.00023335,0.00007421
 ,0.00030194,0.00062924,-0.00035192,-0.00065516,0.09671325,0.00055983,-
 0.00004335,-0.00027870,0.07365799,-0.07936706,0.14139173,-0.02037666,-
 0.01106584,-0.04981815,-0.00057225,-0.00045728,0.00046350,0.00110438,0
 .00034433,-0.00077898,0.00009266,0.00022497,-0.00000423,-0.00005761,0.
 00033277,0.00006089,-0.00168335,-0.00124859,-0.00260577,-0.00022826,-0
 .00011721,0.00003916,-0.00022525,-0.00014009,0.00025473,-0.00129886,0.
 00047646,0.00033248,-0.05097261,0.09106089,0.00044830,-0.00049637,-0.0
 0017922,-0.18500596,0.09797553,-0.39311349,-0.00771382,-0.01055913,-0.
 01585564,0.00100712,0.00059532,0.00037922,-0.00353499,-0.00039521,0.00
 154114,-0.00011110,-0.00038237,-0.00020268,-0.00010306,-0.00010033,-0.
 00024869,0.00497360,0.00174969,-0.00066811,0.00042215,0.00006576,-0.00
 000076,0.00072088,0.00009882,-0.00043776,-0.00033657,0.00050494,0.0001
 1851,0.18923344,-0.08905666,0.40866749\\-0.00000036,-0.00000007,0.0000
 0486,-0.00000988,0.00000701,-0.00000065,0.00000140,0.00000495,-0.00000
 965,-0.00000136,-0.00000445,0.00000319,0.00000338,0.00000318,-0.000005
 16,0.00000106,-0.00000727,0.00000436,-0.00000031,-0.00000301,-0.000000
 28,0.00000286,-0.00000142,0.00000667,0.00000512,-0.00000168,-0.0000015
 9,0.00000126,-0.00000127,-0.00000037,-0.00000282,0.00000131,0.00000112
 ,-0.00000035,0.00000272,-0.00000249\\\@


 THE ATTENTION SPAN OF A COMPUTER IS AS LONG
 AS ITS EXTENSION CORD.
 Job cpu time:       0 days  2 hours 54 minutes 39.8 seconds.
 Elapsed time:       0 days  0 hours  8 minutes 49.9 seconds.
 File lengths (MBytes):  RWF=   1360 Int=      0 D2E=      0 Chk=     32 Scr=     32
 Normal termination of Gaussian 16 at Sat Jun 22 14:05:09 2019.
