 Entering Gaussian System, Link 0=g16
 Initial command:
 /shared/centos7/gaussian/g16/l1.exe "/scratch/harms.n/gauss_scrdir/Gau-41101.inp" -scrdir="/scratch/harms.n/gauss_scrdir/"
 Entering Link 1 = /shared/centos7/gaussian/g16/l1.exe PID=     41113.
  
 Copyright (c) 1988,1990,1992,1993,1995,1998,2003,2009,2016,
            Gaussian, Inc.  All Rights Reserved.
  
 This is part of the Gaussian(R) 16 program.  It is based on
 the Gaussian(R) 09 system (copyright 2009, Gaussian, Inc.),
 the Gaussian(R) 03 system (copyright 2003, Gaussian, Inc.),
 the Gaussian(R) 98 system (copyright 1998, Gaussian, Inc.),
 the Gaussian(R) 94 system (copyright 1995, Gaussian, Inc.),
 the Gaussian 92(TM) system (copyright 1992, Gaussian, Inc.),
 the Gaussian 90(TM) system (copyright 1990, Gaussian, Inc.),
 the Gaussian 88(TM) system (copyright 1988, Gaussian, Inc.),
 the Gaussian 86(TM) system (copyright 1986, Carnegie Mellon
 University), and the Gaussian 82(TM) system (copyright 1983,
 Carnegie Mellon University). Gaussian is a federally registered
 trademark of Gaussian, Inc.
  
 This software contains proprietary and confidential information,
 including trade secrets, belonging to Gaussian, Inc.
  
 This software is provided under written license and may be
 used, copied, transmitted, or stored only in accord with that
 written license.
  
 The following legend is applicable only to US Government
 contracts under FAR:
  
                    RESTRICTED RIGHTS LEGEND
  
 Use, reproduction and disclosure by the US Government is
 subject to restrictions as set forth in subparagraphs (a)
 and (c) of the Commercial Computer Software - Restricted
 Rights clause in FAR 52.227-19.
  
 Gaussian, Inc.
 340 Quinnipiac St., Bldg. 40, Wallingford CT 06492
  
  
 ---------------------------------------------------------------
 Warning -- This program may not be used in any manner that
 competes with the business of Gaussian, Inc. or will provide
 assistance to any competitor of Gaussian, Inc.  The licensee
 of this program is prohibited from giving any competitor of
 Gaussian, Inc. access to this program.  By using this program,
 the user acknowledges that Gaussian, Inc. is engaged in the
 business of creating and licensing software in the field of
 computational chemistry and represents and warrants to the
 licensee that it is not a competitor of Gaussian, Inc. and that
 it will not use this program in any manner prohibited above.
 ---------------------------------------------------------------
  

 Cite this work as:
 Gaussian 16, Revision A.03,
 M. J. Frisch, G. W. Trucks, H. B. Schlegel, G. E. Scuseria, 
 M. A. Robb, J. R. Cheeseman, G. Scalmani, V. Barone, 
 G. A. Petersson, H. Nakatsuji, X. Li, M. Caricato, A. V. Marenich, 
 J. Bloino, B. G. Janesko, R. Gomperts, B. Mennucci, H. P. Hratchian, 
 J. V. Ortiz, A. F. Izmaylov, J. L. Sonnenberg, D. Williams-Young, 
 F. Ding, F. Lipparini, F. Egidi, J. Goings, B. Peng, A. Petrone, 
 T. Henderson, D. Ranasinghe, V. G. Zakrzewski, J. Gao, N. Rega, 
 G. Zheng, W. Liang, M. Hada, M. Ehara, K. Toyota, R. Fukuda, 
 J. Hasegawa, M. Ishida, T. Nakajima, Y. Honda, O. Kitao, H. Nakai, 
 T. Vreven, K. Throssell, J. A. Montgomery, Jr., J. E. Peralta, 
 F. Ogliaro, M. J. Bearpark, J. J. Heyd, E. N. Brothers, K. N. Kudin, 
 V. N. Staroverov, T. A. Keith, R. Kobayashi, J. Normand, 
 K. Raghavachari, A. P. Rendell, J. C. Burant, S. S. Iyengar, 
 J. Tomasi, M. Cossi, J. M. Millam, M. Klene, C. Adamo, R. Cammi, 
 J. W. Ochterski, R. L. Martin, K. Morokuma, O. Farkas, 
 J. B. Foresman, and D. J. Fox, Gaussian, Inc., Wallingford CT, 2016.
 
 ******************************************
 Gaussian 16:  EM64L-G16RevA.03 25-Dec-2016
                30-May-2019 
 ******************************************
 %nprocshared=20
 Will use up to   20 processors via shared memory.
 %mem=5GB
 ----------------------------------------------------------------------
 #p m062x/cc-pVTZ Opt=(ModRedun,Loose,maxcycles=900) Int(Grid=SG1) scf=
 (maxcycle=900)
 ----------------------------------------------------------------------
 1/6=900,7=-1,18=120,19=15,26=2,38=1/1,3;
 2/9=110,12=2,17=6,18=5,40=1/2;
 3/5=16,6=1,11=2,25=1,30=1,71=1,74=-55,75=1/1,2,3;
 4//1;
 5/5=2,7=900,38=5/2;
 6/7=2,8=2,9=2,10=2,28=1/1;
 7//1,2,3,16;
 1/6=900,7=-1,18=20,19=15,26=2/3(2);
 2/9=110/2;
 99//99;
 2/9=110/2;
 3/5=16,6=1,11=2,25=1,30=1,71=1,74=-55,75=1/1,2,3;
 4/5=5,16=3,69=1/1;
 5/5=2,7=900,38=5/2;
 7//1,2,3,16;
 1/6=900,7=-1,18=20,19=15,26=2/3(-5);
 2/9=110/2;
 6/7=2,8=2,9=2,10=2,19=2,28=1/1;
 99/9=1/99;
 Leave Link    1 at Thu May 30 06:29:36 2019, MaxMem=   671088640 cpu:              30.2 elap:               1.6
 (Enter /shared/centos7/gaussian/g16/l101.exe)
 ------------------------------
 Gaussian input prepared by ASE
 ------------------------------
 Symbolic Z-matrix:
 Charge =  0 Multiplicity = 2
 O                    -5.99962   0.73651   8.09346 
 O                    -3.46635  -0.43729   8.82217 
 O                    -3.02422   0.6327    9.44788 
 C                    -5.4302    1.93908   7.6541 
 C                    -4.37324   2.45811   8.61937 
 H                    -4.98234   1.79699   6.64481 
 H                    -6.22539   2.70576   7.5402 
 H                    -3.39204   1.51961   8.79168 
 H                    -3.89262   3.3865    8.24508 
 H                    -4.77731   2.62141   9.64097 
 H                    -6.6274    0.44698   7.38085 
 H                    -4.34883  -0.60419   9.2392 
 
 Add virtual bond connecting atoms H8         and O3         Dist= 2.20D+00.
 Add virtual bond connecting atoms H8         and C5         Dist= 2.59D+00.
 The following ModRedundant input section has been read:
 B       5       8 F                                                           
 B       3       8 F                                                           
 A       3       8       5 F                                                   
 
 ITRead=  0  0  0  0  0  0  0  0  0  0  0  0
 MicOpt= -1 -1 -1 -1 -1 -1 -1 -1 -1 -1 -1 -1
 NAtoms=     12 NQM=       12 NQMF=       0 NMMI=      0 NMMIF=      0
                NMic=       0 NMicF=      0.
                    Isotopes and Nuclear Properties:
 (Nuclear quadrupole moments (NQMom) in fm**2, nuclear magnetic moments (NMagM)
  in nuclear magnetons)

  Atom         1           2           3           4           5           6           7           8           9          10
 IAtWgt=          16          16          16          12          12           1           1           1           1           1
 AtmWgt=  15.9949146  15.9949146  15.9949146  12.0000000  12.0000000   1.0078250   1.0078250   1.0078250   1.0078250   1.0078250
 NucSpn=           0           0           0           0           0           1           1           1           1           1
 AtZEff=  -0.0000000  -0.0000000  -0.0000000  -0.0000000  -0.0000000  -0.0000000  -0.0000000  -0.0000000  -0.0000000  -0.0000000
 NQMom=    0.0000000   0.0000000   0.0000000   0.0000000   0.0000000   0.0000000   0.0000000   0.0000000   0.0000000   0.0000000
 NMagM=    0.0000000   0.0000000   0.0000000   0.0000000   0.0000000   2.7928460   2.7928460   2.7928460   2.7928460   2.7928460
 AtZNuc=   8.0000000   8.0000000   8.0000000   6.0000000   6.0000000   1.0000000   1.0000000   1.0000000   1.0000000   1.0000000

  Atom        11          12
 IAtWgt=           1           1
 AtmWgt=   1.0078250   1.0078250
 NucSpn=           1           1
 AtZEff=  -0.0000000  -0.0000000
 NQMom=    0.0000000   0.0000000
 NMagM=    2.7928460   2.7928460
 AtZNuc=   1.0000000   1.0000000
 Leave Link  101 at Thu May 30 06:29:37 2019, MaxMem=   671088640 cpu:               8.1 elap:               0.4
 (Enter /shared/centos7/gaussian/g16/l103.exe)

 GradGradGradGradGradGradGradGradGradGradGradGradGradGradGradGradGradGrad
 Berny optimization.
 Initialization pass.
                           ----------------------------
                           !    Initial Parameters    !
                           ! (Angstroms and Degrees)  !
 --------------------------                            --------------------------
 ! Name  Definition              Value          Derivative Info.                !
 --------------------------------------------------------------------------------
 ! R1    R(1,4)                  1.4012         estimate D2E/DX2                !
 ! R2    R(1,11)                 0.9929         estimate D2E/DX2                !
 ! R3    R(2,3)                  1.316          estimate D2E/DX2                !
 ! R4    R(2,12)                 0.9902         estimate D2E/DX2                !
 ! R5    R(3,8)                  1.163          Frozen                          !
 ! R6    R(4,5)                  1.5226         estimate D2E/DX2                !
 ! R7    R(4,6)                  1.1133         estimate D2E/DX2                !
 ! R8    R(4,7)                  1.1105         estimate D2E/DX2                !
 ! R9    R(5,8)                  1.3687         Frozen                          !
 ! R10   R(5,9)                  1.1104         estimate D2E/DX2                !
 ! R11   R(5,10)                 1.1107         estimate D2E/DX2                !
 ! A1    A(4,1,11)             106.3899         estimate D2E/DX2                !
 ! A2    A(3,2,12)             103.663          estimate D2E/DX2                !
 ! A3    A(2,3,8)              104.213          estimate D2E/DX2                !
 ! A4    A(1,4,5)              112.0781         estimate D2E/DX2                !
 ! A5    A(1,4,6)              109.7671         estimate D2E/DX2                !
 ! A6    A(1,4,7)              109.4927         estimate D2E/DX2                !
 ! A7    A(5,4,6)              109.8155         estimate D2E/DX2                !
 ! A8    A(5,4,7)              109.0734         estimate D2E/DX2                !
 ! A9    A(6,4,7)              106.4514         estimate D2E/DX2                !
 ! A10   A(4,5,8)              110.1043         estimate D2E/DX2                !
 ! A11   A(4,5,9)              111.8252         estimate D2E/DX2                !
 ! A12   A(4,5,10)             112.3769         estimate D2E/DX2                !
 ! A13   A(8,5,9)              107.7848         estimate D2E/DX2                !
 ! A14   A(8,5,10)             104.231          estimate D2E/DX2                !
 ! A15   A(9,5,10)             110.1561         estimate D2E/DX2                !
 ! A16   A(3,8,5)              145.1562         Frozen                          !
 ! D1    D(11,1,4,5)          -176.4415         estimate D2E/DX2                !
 ! D2    D(11,1,4,6)           -54.1323         estimate D2E/DX2                !
 ! D3    D(11,1,4,7)            62.3833         estimate D2E/DX2                !
 ! D4    D(12,2,3,8)           -91.6003         estimate D2E/DX2                !
 ! D5    D(2,3,8,5)             95.7305         estimate D2E/DX2                !
 ! D6    D(1,4,5,8)             57.6355         estimate D2E/DX2                !
 ! D7    D(1,4,5,9)            177.4349         estimate D2E/DX2                !
 ! D8    D(1,4,5,10)           -58.0733         estimate D2E/DX2                !
 ! D9    D(6,4,5,8)            -64.6462         estimate D2E/DX2                !
 ! D10   D(6,4,5,9)             55.1531         estimate D2E/DX2                !
 ! D11   D(6,4,5,10)           179.645          estimate D2E/DX2                !
 ! D12   D(7,4,5,8)            179.0519         estimate D2E/DX2                !
 ! D13   D(7,4,5,9)            -61.1487         estimate D2E/DX2                !
 ! D14   D(7,4,5,10)            63.3432         estimate D2E/DX2                !
 ! D15   D(4,5,8,3)            -93.7611         estimate D2E/DX2                !
 ! D16   D(9,5,8,3)            144.0183         estimate D2E/DX2                !
 ! D17   D(10,5,8,3)            26.9738         estimate D2E/DX2                !
 --------------------------------------------------------------------------------
 Trust Radius=3.00D-01 FncErr=1.00D-05 GrdErr=1.00D-04 EigMax=2.50D+02 EigMin=1.00D-04
 Number of steps in this run=    100 maximum allowed number of steps=    100.
 GradGradGradGradGradGradGradGradGradGradGradGradGradGradGradGradGradGrad

 Leave Link  103 at Thu May 30 06:29:37 2019, MaxMem=   671088640 cpu:               0.4 elap:               0.0
 (Enter /shared/centos7/gaussian/g16/l202.exe)
                          Input orientation:                          
 ---------------------------------------------------------------------
 Center     Atomic      Atomic             Coordinates (Angstroms)
 Number     Number       Type             X           Y           Z
 ---------------------------------------------------------------------
      1          8           0       -5.999624    0.736513    8.093464
      2          8           0       -3.466349   -0.437293    8.822175
      3          8           0       -3.024223    0.632698    9.447883
      4          6           0       -5.430197    1.939080    7.654103
      5          6           0       -4.373243    2.458107    8.619373
      6          1           0       -4.982339    1.796985    6.644810
      7          1           0       -6.225395    2.705758    7.540200
      8          1           0       -3.392044    1.519612    8.791680
      9          1           0       -3.892625    3.386496    8.245082
     10          1           0       -4.777306    2.621409    9.640971
     11          1           0       -6.627399    0.446978    7.380848
     12          1           0       -4.348832   -0.604194    9.239199
 ---------------------------------------------------------------------
                    Distance matrix (angstroms):
                    1          2          3          4          5
     1  O    0.000000
     2  O    2.885537   0.000000
     3  O    3.270816   1.316005   0.000000
     4  C    1.401232   3.296701   3.273070   0.000000
     5  C    2.426021   3.040876   2.416278   1.522592   0.000000
     6  H    2.063508   3.468594   3.612063   1.113301   2.169557
     7  H    2.057911   4.374307   4.264309   1.110454   2.157872
     8  H    2.810733   1.958553   1.162976   2.371518   1.368654
     9  H    3.388930   3.890516   3.127979   2.192806   1.110403
    10  H    2.727942   3.427054   2.658111   2.199882   1.110674
    11  H    0.992852   3.584913   4.158126   1.932442   3.264936
    12  H    2.415641   0.990223   1.824292   3.185926   3.124494
                    6          7          8          9         10
     6  H    0.000000
     7  H    1.781229   0.000000
     8  H    2.686079   3.316778   0.000000
     9  H    2.504974   2.530233   2.008632   0.000000
    10  H    3.114272   2.552903   1.963212   1.821133   0.000000
    11  H    2.251776   2.299802   3.688972   4.106904   3.641312
    12  H    3.591357   4.166998   2.371976   4.137874   3.278647
                   11         12
    11  H    0.000000
    12  H    3.122547   0.000000
 Stoichiometry    C2H7O3(2)
 Framework group  C1[X(C2H7O3)]
 Deg. of freedom    30
 Full point group                 C1      NOp   1
 Largest Abelian subgroup         C1      NOp   1
 Largest concise Abelian subgroup C1      NOp   1
                         Standard orientation:                         
 ---------------------------------------------------------------------
 Center     Atomic      Atomic             Coordinates (Angstroms)
 Number     Number       Type             X           Y           Z
 ---------------------------------------------------------------------
      1          8           0        1.140079   -1.081272   -0.312886
      2          8           0       -1.666223   -0.738112    0.264377
      3          8           0       -1.708698    0.515719   -0.133081
      4          6           0        1.514323    0.129012    0.285951
      5          6           0        0.586188    1.271390   -0.103693
      6          1           0        1.526303    0.013388    1.393167
      7          1           0        2.551990    0.385892   -0.014663
      8          1           0       -0.703575    0.967346    0.238772
      9          1           0        0.858988    2.218002    0.408657
     10          1           0        0.547141    1.428440   -1.202514
     11          1           0        1.759046   -1.772168    0.041089
     12          1           0       -1.264222   -1.213992   -0.505346
 ---------------------------------------------------------------------
 Rotational constants (GHZ):           7.0302819           3.0375563           2.2725271
 Leave Link  202 at Thu May 30 06:29:37 2019, MaxMem=   671088640 cpu:               0.2 elap:               0.0
 (Enter /shared/centos7/gaussian/g16/l301.exe)
 Standard basis: CC-pVTZ (5D, 7F)
 Ernie: Thresh=  0.10000D-02 Tol=  0.10000D-05 Strict=F.
 Ernie:  15 primitive shells out of 186 were deleted.
 There are   280 symmetry adapted cartesian basis functions of A   symmetry.
 There are   248 symmetry adapted basis functions of A   symmetry.
   248 basis functions,   379 primitive gaussians,   280 cartesian basis functions
    22 alpha electrons       21 beta electrons
       nuclear repulsion energy       191.5732934323 Hartrees.
 IExCor= 4336 DFT=T Ex+Corr=M062X ExCW=0 ScaHFX=  0.540000
 ScaDFX=  1.000000  1.000000  1.000000  1.000000 ScalE2=  1.000000  1.000000
 IRadAn=      1 IRanWt=     -1 IRanGd=            0 ICorTp=0 IEmpDi=  4
 NAtoms=   12 NActive=   12 NUniq=   12 SFac= 1.00D+00 NAtFMM=   60 NAOKFM=F Big=F
 Integral buffers will be    131072 words long.
 Raffenetti 2 integral format.
 Two-electron integral symmetry is turned on.
 Leave Link  301 at Thu May 30 06:29:37 2019, MaxMem=   671088640 cpu:               1.2 elap:               0.1
 (Enter /shared/centos7/gaussian/g16/l302.exe)
 NPDir=0 NMtPBC=     1 NCelOv=     1 NCel=       1 NClECP=     1 NCelD=      1
         NCelK=      1 NCelE2=     1 NClLst=     1 CellRange=     0.0.
 One-electron integrals computed using PRISM.
 One-electron integral symmetry used in STVInt
 NBasis=   248 RedAO= T EigKep=  9.71D-04  NBF=   248
 NBsUse=   248 1.00D-06 EigRej= -1.00D+00 NBFU=   248
 Precomputing XC quadrature grid using
 IXCGrd= 4 IRadAn=           1 IRanWt=          -1 IRanGd=           0 AccXCQ= 0.00D+00.
 Generated NRdTot=       0 NPtTot=           0 NUsed=           0 NTot=          32
 NSgBfM=   280   280   280   280   280 MxSgAt=    12 MxSgA2=    12.
 Leave Link  302 at Thu May 30 06:29:37 2019, MaxMem=   671088640 cpu:               6.2 elap:               0.3
 (Enter /shared/centos7/gaussian/g16/l303.exe)
 DipDrv:  MaxL=1.
 Leave Link  303 at Thu May 30 06:29:37 2019, MaxMem=   671088640 cpu:               0.6 elap:               0.1
 (Enter /shared/centos7/gaussian/g16/l401.exe)
 ExpMin= 1.03D-01 ExpMax= 1.53D+04 ExpMxC= 5.22D+02 IAcc=1 IRadAn=         1 AccDes= 0.00D+00
 Harris functional with IExCor= 1009 and IRadAn=       1 diagonalized for initial guess.
 HarFok:  IExCor= 1009 AccDes= 0.00D+00 IRadAn=         1 IDoV= 1 UseB2=F ITyADJ=14
 ICtDFT=  3500011 ScaDFX=  1.000000  1.000000  1.000000  1.000000
 FoFCou: FMM=F IPFlag=           0 FMFlag=      100000 FMFlg1=           0
         NFxFlg=           0 DoJE=T BraDBF=F KetDBF=T FulRan=T
         wScrn=  0.000000 ICntrl=       500 IOpCl=  0 I1Cent=   200000004 NGrid=           0
         NMat0=    1 NMatS0=      1 NMatT0=    0 NMatD0=    1 NMtDS0=    0 NMtDT0=    0
 Petite list used in FoFCou.
 Harris En= -305.763231389977    
 JPrj=0 DoOrth=F DoCkMO=F.
 Initial guess <Sx>= 0.0000 <Sy>= 0.0000 <Sz>= 0.5000 <S**2>= 0.7500 S= 0.5000
 Leave Link  401 at Thu May 30 06:29:38 2019, MaxMem=   671088640 cpu:               9.2 elap:               0.5
 (Enter /shared/centos7/gaussian/g16/l502.exe)
 Integral symmetry usage will be decided dynamically.
 UHF open shell SCF:
 Using DIIS extrapolation, IDIIS=  1040.
 NGot=   671088640 LenX=   670923676 LenY=   670844835
 Requested convergence on RMS density matrix=1.00D-08 within 900 cycles.
 Requested convergence on MAX density matrix=1.00D-06.
 Requested convergence on             energy=1.00D-06.
 No special actions if energy rises.
 Fock matrices will be formed incrementally for  20 cycles.

 Cycle   1  Pass 1  IDiag  1:
 FoFJK:  IHMeth= 1 ICntrl=       0 DoSepK=F KAlg= 0 I1Cent=           0 FoldK=F
 IRaf= 980000000 NMat=       1 IRICut=       1 DoRegI=T DoRafI=F ISym2E= 0 IDoP0=0 IntGTp=1.
 FoFCou: FMM=F IPFlag=           0 FMFlag=      100000 FMFlg1=           0
         NFxFlg=           0 DoJE=F BraDBF=F KetDBF=F FulRan=T
         wScrn=  0.000000 ICntrl=         0 IOpCl=  1 I1Cent=           0 NGrid=           0
         NMat0=    1 NMatS0=      1 NMatT0=    0 NMatD0=    1 NMtDS0=    0 NMtDT0=    0
 Symmetry not used in FoFCou.
 E= -305.734902252762    
 DIIS: error= 1.72D-02 at cycle   1 NSaved=   1.
 NSaved= 1 IEnMin= 1 EnMin= -305.734902252762     IErMin= 1 ErrMin= 1.72D-02
 ErrMax= 1.72D-02  0.00D+00 EMaxC= 1.00D-01 BMatC= 8.08D-01 BMatP= 8.08D-01
 IDIUse=3 WtCom= 8.28D-01 WtEn= 1.72D-01
 Coeff-Com:  0.100D+01
 Coeff-En:   0.100D+01
 Coeff:      0.100D+01
 Gap=     0.315 Goal=   None    Shift=    0.000
 Gap=     0.325 Goal=   None    Shift=    0.000
 GapD=    0.315 DampG=1.000 DampE=0.500 DampFc=0.5000 IDamp=-1.
 Damping current iteration by 5.00D-01
 RMSDP=2.17D-03 MaxDP=9.73D-02              OVMax= 1.97D-01

 Cycle   2  Pass 1  IDiag  1:
 RMSU=  1.09D-03    CP:  1.00D+00
 E= -305.807001405234     Delta-E=       -0.072099152473 Rises=F Damp=T
 DIIS: error= 6.66D-03 at cycle   2 NSaved=   2.
 NSaved= 2 IEnMin= 2 EnMin= -305.807001405234     IErMin= 2 ErrMin= 6.66D-03
 ErrMax= 6.66D-03  0.00D+00 EMaxC= 1.00D-01 BMatC= 7.90D-02 BMatP= 8.08D-01
 IDIUse=3 WtCom= 9.33D-01 WtEn= 6.66D-02
 Coeff-Com: -0.770D-01 0.108D+01
 Coeff-En:   0.000D+00 0.100D+01
 Coeff:     -0.719D-01 0.107D+01
 Gap=     0.341 Goal=   None    Shift=    0.000
 Gap=     0.280 Goal=   None    Shift=    0.000
 RMSDP=5.01D-04 MaxDP=1.62D-02 DE=-7.21D-02 OVMax= 1.05D-01

 Cycle   3  Pass 1  IDiag  1:
 RMSU=  4.90D-04    CP:  1.01D+00  9.16D-01
 E= -305.879697789870     Delta-E=       -0.072696384636 Rises=F Damp=F
 DIIS: error= 2.91D-03 at cycle   3 NSaved=   3.
 NSaved= 3 IEnMin= 3 EnMin= -305.879697789870     IErMin= 3 ErrMin= 2.91D-03
 ErrMax= 2.91D-03  0.00D+00 EMaxC= 1.00D-01 BMatC= 2.16D-02 BMatP= 7.90D-02
 IDIUse=3 WtCom= 9.71D-01 WtEn= 2.91D-02
 Coeff-Com: -0.929D-01 0.358D+00 0.735D+00
 Coeff-En:   0.000D+00 0.000D+00 0.100D+01
 Coeff:     -0.902D-01 0.348D+00 0.742D+00
 Gap=     0.341 Goal=   None    Shift=    0.000
 Gap=     0.255 Goal=   None    Shift=    0.000
 RMSDP=2.32D-04 MaxDP=7.64D-03 DE=-7.27D-02 OVMax= 3.70D-02

 Cycle   4  Pass 1  IDiag  1:
 RMSU=  1.82D-04    CP:  1.00D+00  1.01D+00  7.89D-01
 E= -305.883496060391     Delta-E=       -0.003798270521 Rises=F Damp=F
 DIIS: error= 1.48D-03 at cycle   4 NSaved=   4.
 NSaved= 4 IEnMin= 4 EnMin= -305.883496060391     IErMin= 4 ErrMin= 1.48D-03
 ErrMax= 1.48D-03  0.00D+00 EMaxC= 1.00D-01 BMatC= 4.17D-03 BMatP= 2.16D-02
 IDIUse=3 WtCom= 9.85D-01 WtEn= 1.48D-02
 Coeff-Com: -0.310D-01 0.692D-01 0.341D+00 0.620D+00
 Coeff-En:   0.000D+00 0.000D+00 0.000D+00 0.100D+01
 Coeff:     -0.306D-01 0.682D-01 0.336D+00 0.626D+00
 Gap=     0.337 Goal=   None    Shift=    0.000
 Gap=     0.259 Goal=   None    Shift=    0.000
 RMSDP=7.91D-05 MaxDP=3.37D-03 DE=-3.80D-03 OVMax= 7.42D-03

 Cycle   5  Pass 1  IDiag  1:
 RMSU=  5.55D-05    CP:  1.00D+00  1.00D+00  8.89D-01  8.49D-01
 E= -305.884303028782     Delta-E=       -0.000806968391 Rises=F Damp=F
 DIIS: error= 4.31D-04 at cycle   5 NSaved=   5.
 NSaved= 5 IEnMin= 5 EnMin= -305.884303028782     IErMin= 5 ErrMin= 4.31D-04
 ErrMax= 4.31D-04  0.00D+00 EMaxC= 1.00D-01 BMatC= 1.85D-04 BMatP= 4.17D-03
 IDIUse=3 WtCom= 9.96D-01 WtEn= 4.31D-03
 Coeff-Com:  0.471D-02-0.215D-01 0.928D-03 0.891D-01 0.927D+00
 Coeff-En:   0.000D+00 0.000D+00 0.000D+00 0.000D+00 0.100D+01
 Coeff:      0.469D-02-0.214D-01 0.924D-03 0.887D-01 0.927D+00
 Gap=     0.338 Goal=   None    Shift=    0.000
 Gap=     0.261 Goal=   None    Shift=    0.000
 RMSDP=4.18D-05 MaxDP=1.94D-03 DE=-8.07D-04 OVMax= 9.54D-03

 Cycle   6  Pass 1  IDiag  1:
 RMSU=  2.52D-05    CP:  1.00D+00  9.99D-01  9.08D-01  9.96D-01  1.30D+00
 E= -305.884432257744     Delta-E=       -0.000129228962 Rises=F Damp=F
 DIIS: error= 2.80D-04 at cycle   6 NSaved=   6.
 NSaved= 6 IEnMin= 6 EnMin= -305.884432257744     IErMin= 6 ErrMin= 2.80D-04
 ErrMax= 2.80D-04  0.00D+00 EMaxC= 1.00D-01 BMatC= 6.65D-05 BMatP= 1.85D-04
 IDIUse=3 WtCom= 9.97D-01 WtEn= 2.80D-03
 Coeff-Com:  0.813D-02-0.192D-01-0.751D-01-0.164D+00 0.152D+00 0.110D+01
 Coeff-En:   0.000D+00 0.000D+00 0.000D+00 0.000D+00 0.000D+00 0.100D+01
 Coeff:      0.811D-02-0.192D-01-0.748D-01-0.164D+00 0.152D+00 0.110D+01
 Gap=     0.339 Goal=   None    Shift=    0.000
 Gap=     0.262 Goal=   None    Shift=    0.000
 RMSDP=3.36D-05 MaxDP=1.23D-03 DE=-1.29D-04 OVMax= 5.47D-03

 Cycle   7  Pass 1  IDiag  1:
 RMSU=  1.30D-05    CP:  1.00D+00  9.97D-01  9.24D-01  1.09D+00  1.73D+00
                    CP:  1.31D+00
 E= -305.884479302917     Delta-E=       -0.000047045173 Rises=F Damp=F
 DIIS: error= 1.04D-04 at cycle   7 NSaved=   7.
 NSaved= 7 IEnMin= 7 EnMin= -305.884479302917     IErMin= 7 ErrMin= 1.04D-04
 ErrMax= 1.04D-04  0.00D+00 EMaxC= 1.00D-01 BMatC= 1.84D-05 BMatP= 6.65D-05
 IDIUse=3 WtCom= 9.99D-01 WtEn= 1.04D-03
 Coeff-Com:  0.318D-02-0.549D-02-0.328D-01-0.943D-01-0.602D-01 0.537D+00
 Coeff-Com:  0.653D+00
 Coeff-En:   0.000D+00 0.000D+00 0.000D+00 0.000D+00 0.000D+00 0.000D+00
 Coeff-En:   0.100D+01
 Coeff:      0.317D-02-0.548D-02-0.328D-01-0.942D-01-0.601D-01 0.536D+00
 Coeff:      0.653D+00
 Gap=     0.339 Goal=   None    Shift=    0.000
 Gap=     0.263 Goal=   None    Shift=    0.000
 RMSDP=1.04D-05 MaxDP=5.09D-04 DE=-4.70D-05 OVMax= 2.79D-03

 Cycle   8  Pass 1  IDiag  1:
 RMSU=  5.27D-06    CP:  1.00D+00  9.97D-01  9.28D-01  1.11D+00  1.82D+00
                    CP:  1.55D+00  9.77D-01
 E= -305.884487065928     Delta-E=       -0.000007763011 Rises=F Damp=F
 DIIS: error= 4.23D-05 at cycle   8 NSaved=   8.
 NSaved= 8 IEnMin= 8 EnMin= -305.884487065928     IErMin= 8 ErrMin= 4.23D-05
 ErrMax= 4.23D-05  0.00D+00 EMaxC= 1.00D-01 BMatC= 2.45D-06 BMatP= 1.84D-05
 IDIUse=1 WtCom= 1.00D+00 WtEn= 0.00D+00
 Coeff-Com: -0.144D-02 0.342D-02 0.152D-01 0.244D-01-0.253D-01-0.218D+00
 Coeff-Com:  0.842D-01 0.112D+01
 Coeff:     -0.144D-02 0.342D-02 0.152D-01 0.244D-01-0.253D-01-0.218D+00
 Coeff:      0.842D-01 0.112D+01
 Gap=     0.339 Goal=   None    Shift=    0.000
 Gap=     0.263 Goal=   None    Shift=    0.000
 RMSDP=6.91D-06 MaxDP=2.49D-04 DE=-7.76D-06 OVMax= 1.68D-03

 Cycle   9  Pass 1  IDiag  1:
 RMSU=  2.20D-06    CP:  1.00D+00  9.97D-01  9.30D-01  1.12D+00  1.88D+00
                    CP:  1.66D+00  1.24D+00  1.43D+00
 E= -305.884488903809     Delta-E=       -0.000001837881 Rises=F Damp=F
 DIIS: error= 1.87D-05 at cycle   9 NSaved=   9.
 NSaved= 9 IEnMin= 9 EnMin= -305.884488903809     IErMin= 9 ErrMin= 1.87D-05
 ErrMax= 1.87D-05  0.00D+00 EMaxC= 1.00D-01 BMatC= 4.88D-07 BMatP= 2.45D-06
 IDIUse=1 WtCom= 1.00D+00 WtEn= 0.00D+00
 Coeff-Com: -0.935D-03 0.194D-02 0.112D-01 0.234D-01 0.765D-02-0.177D+00
 Coeff-Com: -0.553D-01 0.361D+00 0.828D+00
 Coeff:     -0.935D-03 0.194D-02 0.112D-01 0.234D-01 0.765D-02-0.177D+00
 Coeff:     -0.553D-01 0.361D+00 0.828D+00
 Gap=     0.339 Goal=   None    Shift=    0.000
 Gap=     0.263 Goal=   None    Shift=    0.000
 RMSDP=2.64D-06 MaxDP=8.86D-05 DE=-1.84D-06 OVMax= 6.19D-04

 Cycle  10  Pass 1  IDiag  1:
 RMSU=  9.29D-07    CP:  1.00D+00  9.97D-01  9.31D-01  1.12D+00  1.91D+00
                    CP:  1.69D+00  1.34D+00  1.68D+00  1.25D+00
 E= -305.884489204076     Delta-E=       -0.000000300267 Rises=F Damp=F
 DIIS: error= 8.91D-06 at cycle  10 NSaved=  10.
 NSaved=10 IEnMin=10 EnMin= -305.884489204076     IErMin=10 ErrMin= 8.91D-06
 ErrMax= 8.91D-06  0.00D+00 EMaxC= 1.00D-01 BMatC= 1.24D-07 BMatP= 4.88D-07
 IDIUse=1 WtCom= 1.00D+00 WtEn= 0.00D+00
 Coeff-Com: -0.809D-04 0.687D-04 0.201D-02 0.492D-02 0.906D-02-0.405D-01
 Coeff-Com: -0.297D-01-0.709D-01 0.345D+00 0.780D+00
 Coeff:     -0.809D-04 0.687D-04 0.201D-02 0.492D-02 0.906D-02-0.405D-01
 Coeff:     -0.297D-01-0.709D-01 0.345D+00 0.780D+00
 Gap=     0.339 Goal=   None    Shift=    0.000
 Gap=     0.263 Goal=   None    Shift=    0.000
 RMSDP=1.23D-06 MaxDP=6.00D-05 DE=-3.00D-07 OVMax= 3.18D-04

 Cycle  11  Pass 1  IDiag  1:
 RMSU=  4.84D-07    CP:  1.00D+00  9.96D-01  9.31D-01  1.12D+00  1.91D+00
                    CP:  1.70D+00  1.38D+00  1.77D+00  1.49D+00  1.14D+00
 E= -305.884489274992     Delta-E=       -0.000000070916 Rises=F Damp=F
 DIIS: error= 3.46D-06 at cycle  11 NSaved=  11.
 NSaved=11 IEnMin=11 EnMin= -305.884489274992     IErMin=11 ErrMin= 3.46D-06
 ErrMax= 3.46D-06  0.00D+00 EMaxC= 1.00D-01 BMatC= 3.11D-08 BMatP= 1.24D-07
 IDIUse=1 WtCom= 1.00D+00 WtEn= 0.00D+00
 Coeff-Com:  0.169D-03-0.385D-03-0.144D-02-0.296D-02 0.286D-02 0.200D-01
 Coeff-Com:  0.124D-02-0.119D+00-0.512D-01 0.357D+00 0.794D+00
 Coeff:      0.169D-03-0.385D-03-0.144D-02-0.296D-02 0.286D-02 0.200D-01
 Coeff:      0.124D-02-0.119D+00-0.512D-01 0.357D+00 0.794D+00
 Gap=     0.339 Goal=   None    Shift=    0.000
 Gap=     0.263 Goal=   None    Shift=    0.000
 RMSDP=6.67D-07 MaxDP=2.44D-05 DE=-7.09D-08 OVMax= 1.40D-04

 Cycle  12  Pass 1  IDiag  1:
 RMSU=  2.29D-07    CP:  1.00D+00  9.96D-01  9.32D-01  1.12D+00  1.92D+00
                    CP:  1.71D+00  1.39D+00  1.82D+00  1.63D+00  1.43D+00
                    CP:  1.27D+00
 E= -305.884489294904     Delta-E=       -0.000000019911 Rises=F Damp=F
 DIIS: error= 2.05D-06 at cycle  12 NSaved=  12.
 NSaved=12 IEnMin=12 EnMin= -305.884489294904     IErMin=12 ErrMin= 2.05D-06
 ErrMax= 2.05D-06  0.00D+00 EMaxC= 1.00D-01 BMatC= 4.45D-09 BMatP= 3.11D-08
 IDIUse=1 WtCom= 1.00D+00 WtEn= 0.00D+00
 Coeff-Com:  0.727D-04-0.150D-03-0.852D-03-0.192D-02-0.727D-03 0.139D-01
 Coeff-Com:  0.679D-02-0.230D-01-0.873D-01-0.217D-01 0.233D+00 0.882D+00
 Coeff:      0.727D-04-0.150D-03-0.852D-03-0.192D-02-0.727D-03 0.139D-01
 Coeff:      0.679D-02-0.230D-01-0.873D-01-0.217D-01 0.233D+00 0.882D+00
 Gap=     0.339 Goal=   None    Shift=    0.000
 Gap=     0.263 Goal=   None    Shift=    0.000
 RMSDP=3.15D-07 MaxDP=1.64D-05 DE=-1.99D-08 OVMax= 9.35D-05

 Cycle  13  Pass 1  IDiag  1:
 RMSU=  1.30D-07    CP:  1.00D+00  9.96D-01  9.32D-01  1.12D+00  1.92D+00
                    CP:  1.71D+00  1.40D+00  1.83D+00  1.69D+00  1.57D+00
                    CP:  1.62D+00  1.45D+00
 E= -305.884489300728     Delta-E=       -0.000000005824 Rises=F Damp=F
 DIIS: error= 1.35D-06 at cycle  13 NSaved=  13.
 NSaved=13 IEnMin=13 EnMin= -305.884489300728     IErMin=13 ErrMin= 1.35D-06
 ErrMax= 1.35D-06  0.00D+00 EMaxC= 1.00D-01 BMatC= 1.42D-09 BMatP= 4.45D-09
 IDIUse=1 WtCom= 1.00D+00 WtEn= 0.00D+00
 Coeff-Com: -0.571D-04 0.126D-03 0.468D-03 0.969D-03-0.725D-03-0.628D-02
 Coeff-Com: -0.991D-03 0.359D-01 0.149D-01-0.911D-01-0.262D+00 0.163D-02
 Coeff-Com:  0.131D+01
 Coeff:     -0.571D-04 0.126D-03 0.468D-03 0.969D-03-0.725D-03-0.628D-02
 Coeff:     -0.991D-03 0.359D-01 0.149D-01-0.911D-01-0.262D+00 0.163D-02
 Coeff:      0.131D+01
 Gap=     0.339 Goal=   None    Shift=    0.000
 Gap=     0.263 Goal=   None    Shift=    0.000
 RMSDP=2.90D-07 MaxDP=1.36D-05 DE=-5.82D-09 OVMax= 1.02D-04

 Cycle  14  Pass 1  IDiag  1:
 RMSU=  6.20D-08    CP:  1.00D+00  9.96D-01  9.32D-01  1.12D+00  1.92D+00
                    CP:  1.71D+00  1.40D+00  1.84D+00  1.72D+00  1.67D+00
                    CP:  1.94D+00  2.17D+00  1.78D+00
 E= -305.884489303936     Delta-E=       -0.000000003207 Rises=F Damp=F
 DIIS: error= 6.15D-07 at cycle  14 NSaved=  14.
 NSaved=14 IEnMin=14 EnMin= -305.884489303936     IErMin=14 ErrMin= 6.15D-07
 ErrMax= 6.15D-07  0.00D+00 EMaxC= 1.00D-01 BMatC= 3.21D-10 BMatP= 1.42D-09
 IDIUse=1 WtCom= 1.00D+00 WtEn= 0.00D+00
 Coeff-Com: -0.101D-04 0.207D-04 0.159D-03 0.372D-03 0.228D-03-0.303D-02
 Coeff-Com: -0.191D-02 0.191D-02 0.208D-01 0.176D-01-0.248D-01-0.282D+00
 Coeff-Com: -0.171D+00 0.144D+01
 Coeff:     -0.101D-04 0.207D-04 0.159D-03 0.372D-03 0.228D-03-0.303D-02
 Coeff:     -0.191D-02 0.191D-02 0.208D-01 0.176D-01-0.248D-01-0.282D+00
 Coeff:     -0.171D+00 0.144D+01
 Gap=     0.339 Goal=   None    Shift=    0.000
 Gap=     0.263 Goal=   None    Shift=    0.000
 RMSDP=2.03D-07 MaxDP=1.03D-05 DE=-3.21D-09 OVMax= 7.47D-05

 Cycle  15  Pass 1  IDiag  1:
 RMSU=  2.91D-08    CP:  1.00D+00  9.96D-01  9.32D-01  1.12D+00  1.92D+00
                    CP:  1.71D+00  1.40D+00  1.84D+00  1.74D+00  1.73D+00
                    CP:  2.16D+00  2.65D+00  2.53D+00  1.84D+00
 E= -305.884489304922     Delta-E=       -0.000000000986 Rises=F Damp=F
 DIIS: error= 2.13D-07 at cycle  15 NSaved=  15.
 NSaved=15 IEnMin=15 EnMin= -305.884489304922     IErMin=15 ErrMin= 2.13D-07
 ErrMax= 2.13D-07  0.00D+00 EMaxC= 1.00D-01 BMatC= 4.90D-11 BMatP= 3.21D-10
 IDIUse=1 WtCom= 1.00D+00 WtEn= 0.00D+00
 Coeff-Com:  0.137D-04-0.294D-04-0.120D-03-0.235D-03 0.934D-04 0.179D-02
 Coeff-Com:  0.226D-03-0.783D-02-0.514D-02 0.194D-01 0.665D-01 0.223D-01
 Coeff-Com: -0.285D+00-0.790D-01 0.127D+01
 Coeff:      0.137D-04-0.294D-04-0.120D-03-0.235D-03 0.934D-04 0.179D-02
 Coeff:      0.226D-03-0.783D-02-0.514D-02 0.194D-01 0.665D-01 0.223D-01
 Coeff:     -0.285D+00-0.790D-01 0.127D+01
 Gap=     0.339 Goal=   None    Shift=    0.000
 Gap=     0.263 Goal=   None    Shift=    0.000
 RMSDP=6.93D-08 MaxDP=3.54D-06 DE=-9.86D-10 OVMax= 2.58D-05

 Cycle  16  Pass 1  IDiag  1:
 RMSU=  1.12D-08    CP:  1.00D+00  9.96D-01  9.32D-01  1.12D+00  1.92D+00
                    CP:  1.71D+00  1.40D+00  1.84D+00  1.75D+00  1.75D+00
                    CP:  2.22D+00  2.80D+00  2.78D+00  2.31D+00  1.61D+00
 E= -305.884489305027     Delta-E=       -0.000000000106 Rises=F Damp=F
 DIIS: error= 5.35D-08 at cycle  16 NSaved=  16.
 NSaved=16 IEnMin=16 EnMin= -305.884489305027     IErMin=16 ErrMin= 5.35D-08
 ErrMax= 5.35D-08  0.00D+00 EMaxC= 1.00D-01 BMatC= 4.86D-12 BMatP= 4.90D-11
 IDIUse=1 WtCom= 1.00D+00 WtEn= 0.00D+00
 Coeff-Com:  0.338D-06-0.909D-06-0.176D-04-0.314D-04-0.389D-04 0.351D-03
 Coeff-Com:  0.131D-03-0.131D-03-0.225D-02-0.244D-02 0.265D-02 0.297D-01
 Coeff-Com:  0.153D-01-0.146D+00-0.492D-01 0.115D+01
 Coeff:      0.338D-06-0.909D-06-0.176D-04-0.314D-04-0.389D-04 0.351D-03
 Coeff:      0.131D-03-0.131D-03-0.225D-02-0.244D-02 0.265D-02 0.297D-01
 Coeff:      0.153D-01-0.146D+00-0.492D-01 0.115D+01
 Gap=     0.339 Goal=   None    Shift=    0.000
 Gap=     0.263 Goal=   None    Shift=    0.000
 RMSDP=1.78D-08 MaxDP=8.71D-07 DE=-1.06D-10 OVMax= 6.25D-06

 Cycle  17  Pass 1  IDiag  1:
 RMSU=  3.96D-09    CP:  1.00D+00  9.96D-01  9.32D-01  1.12D+00  1.92D+00
                    CP:  1.71D+00  1.40D+00  1.84D+00  1.75D+00  1.75D+00
                    CP:  2.24D+00  2.83D+00  2.83D+00  2.43D+00  1.87D+00
                    CP:  1.31D+00
 E= -305.884489305041     Delta-E=       -0.000000000014 Rises=F Damp=F
 DIIS: error= 1.93D-08 at cycle  17 NSaved=  17.
 NSaved=17 IEnMin=17 EnMin= -305.884489305041     IErMin=17 ErrMin= 1.93D-08
 ErrMax= 1.93D-08  0.00D+00 EMaxC= 1.00D-01 BMatC= 4.90D-13 BMatP= 4.86D-12
 IDIUse=1 WtCom= 1.00D+00 WtEn= 0.00D+00
 Coeff-Com: -0.150D-05 0.322D-05 0.116D-04 0.228D-04-0.868D-05-0.174D-03
 Coeff-Com: -0.234D-04 0.815D-03 0.451D-03-0.221D-02-0.647D-02-0.164D-02
 Coeff-Com:  0.312D-01 0.626D-02-0.155D+00 0.549D-01 0.107D+01
 Coeff:     -0.150D-05 0.322D-05 0.116D-04 0.228D-04-0.868D-05-0.174D-03
 Coeff:     -0.234D-04 0.815D-03 0.451D-03-0.221D-02-0.647D-02-0.164D-02
 Coeff:      0.312D-01 0.626D-02-0.155D+00 0.549D-01 0.107D+01
 Gap=     0.339 Goal=   None    Shift=    0.000
 Gap=     0.263 Goal=   None    Shift=    0.000
 RMSDP=4.05D-09 MaxDP=1.60D-07 DE=-1.39D-11 OVMax= 1.16D-06

 SCF Done:  E(UM062X) =  -305.884489305     A.U. after   17 cycles
            NFock= 17  Conv=0.41D-08     -V/T= 2.0053
 <Sx>= 0.0000 <Sy>= 0.0000 <Sz>= 0.5000 <S**2>= 0.7600 S= 0.5050
 <L.S>= 0.000000000000E+00
 KE= 3.042759941739D+02 PE=-1.102453771814D+03 EE= 3.007199949029D+02
 Annihilation of the first spin contaminant:
 S**2 before annihilation     0.7600,   after     0.7500
 Leave Link  502 at Thu May 30 06:30:07 2019, MaxMem=   671088640 cpu:             575.8 elap:              28.9
 (Enter /shared/centos7/gaussian/g16/l601.exe)
 Copying SCF densities to generalized density rwf, IOpCl= 1 IROHF=0.

 **********************************************************************

            Population analysis using the SCF density.

 **********************************************************************

 Orbital symmetries:
 Alpha Orbitals:
       Occupied  (A) (A) (A) (A) (A) (A) (A) (A) (A) (A) (A) (A)
                 (A) (A) (A) (A) (A) (A) (A) (A) (A) (A)
       Virtual   (A) (A) (A) (A) (A) (A) (A) (A) (A) (A) (A) (A)
                 (A) (A) (A) (A) (A) (A) (A) (A) (A) (A) (A) (A)
                 (A) (A) (A) (A) (A) (A) (A) (A) (A) (A) (A) (A)
                 (A) (A) (A) (A) (A) (A) (A) (A) (A) (A) (A) (A)
                 (A) (A) (A) (A) (A) (A) (A) (A) (A) (A) (A) (A)
                 (A) (A) (A) (A) (A) (A) (A) (A) (A) (A) (A) (A)
                 (A) (A) (A) (A) (A) (A) (A) (A) (A) (A) (A) (A)
                 (A) (A) (A) (A) (A) (A) (A) (A) (A) (A) (A) (A)
                 (A) (A) (A) (A) (A) (A) (A) (A) (A) (A) (A) (A)
                 (A) (A) (A) (A) (A) (A) (A) (A) (A) (A) (A) (A)
                 (A) (A) (A) (A) (A) (A) (A) (A) (A) (A) (A) (A)
                 (A) (A) (A) (A) (A) (A) (A) (A) (A) (A) (A) (A)
                 (A) (A) (A) (A) (A) (A) (A) (A) (A) (A) (A) (A)
                 (A) (A) (A) (A) (A) (A) (A) (A) (A) (A) (A) (A)
                 (A) (A) (A) (A) (A) (A) (A) (A) (A) (A) (A) (A)
                 (A) (A) (A) (A) (A) (A) (A) (A) (A) (A) (A) (A)
                 (A) (A) (A) (A) (A) (A) (A) (A) (A) (A) (A) (A)
                 (A) (A) (A) (A) (A) (A) (A) (A) (A) (A) (A) (A)
                 (A) (A) (A) (A) (A) (A) (A) (A) (A) (A)
 Beta  Orbitals:
       Occupied  (A) (A) (A) (A) (A) (A) (A) (A) (A) (A) (A) (A)
                 (A) (A) (A) (A) (A) (A) (A) (A) (A)
       Virtual   (A) (A) (A) (A) (A) (A) (A) (A) (A) (A) (A) (A)
                 (A) (A) (A) (A) (A) (A) (A) (A) (A) (A) (A) (A)
                 (A) (A) (A) (A) (A) (A) (A) (A) (A) (A) (A) (A)
                 (A) (A) (A) (A) (A) (A) (A) (A) (A) (A) (A) (A)
                 (A) (A) (A) (A) (A) (A) (A) (A) (A) (A) (A) (A)
                 (A) (A) (A) (A) (A) (A) (A) (A) (A) (A) (A) (A)
                 (A) (A) (A) (A) (A) (A) (A) (A) (A) (A) (A) (A)
                 (A) (A) (A) (A) (A) (A) (A) (A) (A) (A) (A) (A)
                 (A) (A) (A) (A) (A) (A) (A) (A) (A) (A) (A) (A)
                 (A) (A) (A) (A) (A) (A) (A) (A) (A) (A) (A) (A)
                 (A) (A) (A) (A) (A) (A) (A) (A) (A) (A) (A) (A)
                 (A) (A) (A) (A) (A) (A) (A) (A) (A) (A) (A) (A)
                 (A) (A) (A) (A) (A) (A) (A) (A) (A) (A) (A) (A)
                 (A) (A) (A) (A) (A) (A) (A) (A) (A) (A) (A) (A)
                 (A) (A) (A) (A) (A) (A) (A) (A) (A) (A) (A) (A)
                 (A) (A) (A) (A) (A) (A) (A) (A) (A) (A) (A) (A)
                 (A) (A) (A) (A) (A) (A) (A) (A) (A) (A) (A) (A)
                 (A) (A) (A) (A) (A) (A) (A) (A) (A) (A) (A) (A)
                 (A) (A) (A) (A) (A) (A) (A) (A) (A) (A) (A)
 The electronic state is 2-A.
 Alpha  occ. eigenvalues --  -19.68857 -19.68509 -19.63730 -10.60056 -10.55431
 Alpha  occ. eigenvalues --   -1.30944  -1.15923  -0.97381  -0.84962  -0.70781
 Alpha  occ. eigenvalues --   -0.63799  -0.60524  -0.59473  -0.54394  -0.53889
 Alpha  occ. eigenvalues --   -0.49441  -0.46230  -0.42374  -0.40111  -0.36623
 Alpha  occ. eigenvalues --   -0.35708  -0.29241
 Alpha virt. eigenvalues --    0.04656   0.08802   0.09581   0.12218   0.12848
 Alpha virt. eigenvalues --    0.14284   0.18941   0.20282   0.22503   0.23555
 Alpha virt. eigenvalues --    0.29926   0.31134   0.35579   0.36000   0.40234
 Alpha virt. eigenvalues --    0.41031   0.42591   0.44547   0.47005   0.47681
 Alpha virt. eigenvalues --    0.49601   0.50234   0.51545   0.54154   0.56229
 Alpha virt. eigenvalues --    0.57061   0.59906   0.60525   0.62942   0.65366
 Alpha virt. eigenvalues --    0.66848   0.71530   0.72357   0.74682   0.75627
 Alpha virt. eigenvalues --    0.78961   0.80542   0.84487   0.85253   0.91576
 Alpha virt. eigenvalues --    0.95333   0.98104   0.99826   1.01899   1.04994
 Alpha virt. eigenvalues --    1.08291   1.09184   1.10250   1.11617   1.13127
 Alpha virt. eigenvalues --    1.14334   1.16364   1.19293   1.24300   1.26220
 Alpha virt. eigenvalues --    1.29290   1.31606   1.33371   1.34905   1.36281
 Alpha virt. eigenvalues --    1.37897   1.40938   1.42787   1.48066   1.51510
 Alpha virt. eigenvalues --    1.55326   1.58258   1.60376   1.66300   1.72316
 Alpha virt. eigenvalues --    1.80673   1.86811   1.96400   1.97040   1.99621
 Alpha virt. eigenvalues --    2.00216   2.05010   2.11125   2.12159   2.15560
 Alpha virt. eigenvalues --    2.20409   2.23515   2.29642   2.31701   2.34385
 Alpha virt. eigenvalues --    2.36291   2.38792   2.46320   2.49932   2.52104
 Alpha virt. eigenvalues --    2.57495   2.60005   2.63325   2.68489   2.75968
 Alpha virt. eigenvalues --    2.77720   2.85267   2.87426   2.89661   2.92421
 Alpha virt. eigenvalues --    2.95074   2.97045   2.98848   2.99399   3.02147
 Alpha virt. eigenvalues --    3.03731   3.08201   3.09256   3.11074   3.14267
 Alpha virt. eigenvalues --    3.17799   3.21743   3.25281   3.27115   3.28911
 Alpha virt. eigenvalues --    3.32412   3.33652   3.36080   3.36891   3.38165
 Alpha virt. eigenvalues --    3.43169   3.45414   3.46830   3.49430   3.53658
 Alpha virt. eigenvalues --    3.58337   3.59442   3.62074   3.64722   3.65911
 Alpha virt. eigenvalues --    3.69061   3.73058   3.74199   3.74456   3.78046
 Alpha virt. eigenvalues --    3.78466   3.79696   3.81737   3.84126   3.85806
 Alpha virt. eigenvalues --    3.88264   3.89862   3.92008   3.94251   3.95359
 Alpha virt. eigenvalues --    3.96518   3.99603   4.01755   4.02869   4.08352
 Alpha virt. eigenvalues --    4.09863   4.12779   4.15302   4.19301   4.20272
 Alpha virt. eigenvalues --    4.24330   4.29502   4.30260   4.37053   4.40713
 Alpha virt. eigenvalues --    4.41036   4.43428   4.50163   4.58840   4.62341
 Alpha virt. eigenvalues --    4.64398   4.69435   4.74706   4.76592   4.78927
 Alpha virt. eigenvalues --    4.83773   4.86733   4.88970   4.92219   4.95994
 Alpha virt. eigenvalues --    4.98321   5.00754   5.06710   5.07148   5.13186
 Alpha virt. eigenvalues --    5.15209   5.18843   5.22962   5.26433   5.29301
 Alpha virt. eigenvalues --    5.35419   5.43626   5.55207   5.68063   5.70827
 Alpha virt. eigenvalues --    5.78938   5.80110   5.84354   5.94382   6.04117
 Alpha virt. eigenvalues --    6.09880   6.18437   6.24878   6.30936   6.34935
 Alpha virt. eigenvalues --    6.36848   6.42614   6.45517   6.47718   6.54274
 Alpha virt. eigenvalues --    6.58035   6.60945   6.62266   6.66236   6.74481
 Alpha virt. eigenvalues --    6.77976   6.85749   6.86899   6.89900   6.95965
 Alpha virt. eigenvalues --    7.11976   7.23068   7.27095   7.31380   7.52241
 Alpha virt. eigenvalues --    7.68628   9.95784  11.42476  11.74556  11.91740
 Alpha virt. eigenvalues --   12.48227
  Beta  occ. eigenvalues --  -19.68573 -19.67494 -19.63723 -10.60075 -10.54905
  Beta  occ. eigenvalues --   -1.28962  -1.15876  -0.94695  -0.83770  -0.69377
  Beta  occ. eigenvalues --   -0.62018  -0.60194  -0.56720  -0.53571  -0.50997
  Beta  occ. eigenvalues --   -0.48984  -0.45408  -0.41414  -0.37507  -0.35040
  Beta  occ. eigenvalues --   -0.33446
  Beta virt. eigenvalues --   -0.07131   0.04649   0.08718   0.09716   0.12234
  Beta virt. eigenvalues --    0.12719   0.14523   0.19455   0.20570   0.23163
  Beta virt. eigenvalues --    0.24037   0.30227   0.31404   0.36117   0.36385
  Beta virt. eigenvalues --    0.40403   0.41195   0.42852   0.45277   0.47609
  Beta virt. eigenvalues --    0.48725   0.50248   0.50642   0.51699   0.54563
  Beta virt. eigenvalues --    0.56702   0.57515   0.60650   0.60975   0.63309
  Beta virt. eigenvalues --    0.65652   0.66987   0.71898   0.72570   0.74799
  Beta virt. eigenvalues --    0.75922   0.79107   0.80570   0.84844   0.85414
  Beta virt. eigenvalues --    0.91740   0.95786   0.98270   0.99957   1.02333
  Beta virt. eigenvalues --    1.05297   1.08465   1.09504   1.10464   1.11714
  Beta virt. eigenvalues --    1.13700   1.14705   1.16488   1.19733   1.24430
  Beta virt. eigenvalues --    1.26600   1.29712   1.31928   1.33565   1.35135
  Beta virt. eigenvalues --    1.36787   1.38286   1.41211   1.43163   1.48453
  Beta virt. eigenvalues --    1.52603   1.55644   1.58572   1.61107   1.66768
  Beta virt. eigenvalues --    1.72867   1.82111   1.87048   1.96889   1.97502
  Beta virt. eigenvalues --    2.00040   2.00592   2.05344   2.12173   2.12355
  Beta virt. eigenvalues --    2.15730   2.20747   2.23740   2.30089   2.32494
  Beta virt. eigenvalues --    2.34956   2.37184   2.39005   2.46672   2.50206
  Beta virt. eigenvalues --    2.52333   2.57969   2.61356   2.63769   2.69496
  Beta virt. eigenvalues --    2.76580   2.79180   2.85459   2.87812   2.91085
  Beta virt. eigenvalues --    2.93457   2.95764   2.97559   2.99693   3.00848
  Beta virt. eigenvalues --    3.03371   3.05216   3.08831   3.11004   3.11606
  Beta virt. eigenvalues --    3.15638   3.19453   3.22527   3.25497   3.27630
  Beta virt. eigenvalues --    3.29150   3.32317   3.34323   3.36287   3.37339
  Beta virt. eigenvalues --    3.38959   3.44048   3.45718   3.47350   3.49548
  Beta virt. eigenvalues --    3.53936   3.58654   3.59824   3.62619   3.65035
  Beta virt. eigenvalues --    3.66126   3.69239   3.73709   3.74597   3.74694
  Beta virt. eigenvalues --    3.78158   3.78910   3.79960   3.82333   3.84276
  Beta virt. eigenvalues --    3.86167   3.88472   3.89918   3.92328   3.94631
  Beta virt. eigenvalues --    3.95609   3.96819   3.99494   4.02262   4.03636
  Beta virt. eigenvalues --    4.08411   4.10312   4.13116   4.15633   4.19753
  Beta virt. eigenvalues --    4.20836   4.25183   4.29777   4.30822   4.37382
  Beta virt. eigenvalues --    4.41049   4.41644   4.44671   4.51027   4.59305
  Beta virt. eigenvalues --    4.62739   4.64758   4.69958   4.75286   4.77244
  Beta virt. eigenvalues --    4.80065   4.84561   4.87119   4.89697   4.92563
  Beta virt. eigenvalues --    4.97043   4.99026   5.01501   5.08133   5.08414
  Beta virt. eigenvalues --    5.13377   5.15567   5.19263   5.23445   5.27570
  Beta virt. eigenvalues --    5.30545   5.36105   5.46497   5.55299   5.68615
  Beta virt. eigenvalues --    5.73821   5.78951   5.82351   5.84736   5.94460
  Beta virt. eigenvalues --    6.04775   6.09949   6.20353   6.25155   6.31670
  Beta virt. eigenvalues --    6.35150   6.36877   6.43568   6.46325   6.49105
  Beta virt. eigenvalues --    6.54459   6.58676   6.63044   6.64605   6.67868
  Beta virt. eigenvalues --    6.74503   6.79262   6.86202   6.87262   6.90904
  Beta virt. eigenvalues --    6.96088   7.12019   7.22909   7.28249   7.31492
  Beta virt. eigenvalues --    7.52847   7.68747   9.96567  11.42629  11.74917
  Beta virt. eigenvalues --   11.92775  12.48730
          Condensed to atoms (all electrons):
               1          2          3          4          5          6
     1  O    7.918167  -0.008876   0.001055   0.307971  -0.044350  -0.056865
     2  O   -0.008876   7.896043   0.034791   0.009465  -0.003362   0.000399
     3  O    0.001055   0.034791   8.102121  -0.002228  -0.087684   0.000364
     4  C    0.307971   0.009465  -0.002228   4.722622   0.298881   0.401906
     5  C   -0.044350  -0.003362  -0.087684   0.298881   5.303640  -0.044016
     6  H   -0.056865   0.000399   0.000364   0.401906  -0.044016   0.691463
     7  H   -0.049597   0.000043  -0.000225   0.406328  -0.043859  -0.076277
     8  H   -0.000367  -0.028618   0.180882  -0.012865   0.249242  -0.006450
     9  H    0.003165   0.000443   0.002253  -0.027889   0.366958  -0.001013
    10  H    0.002517   0.000638  -0.002834  -0.039067   0.385412   0.009464
    11  H    0.318876   0.000693  -0.000101  -0.034349   0.009534  -0.009211
    12  H    0.015220   0.313528  -0.040426  -0.001735  -0.004434   0.000348
               7          8          9         10         11         12
     1  O   -0.049597  -0.000367   0.003165   0.002517   0.318876   0.015220
     2  O    0.000043  -0.028618   0.000443   0.000638   0.000693   0.313528
     3  O   -0.000225   0.180882   0.002253  -0.002834  -0.000101  -0.040426
     4  C    0.406328  -0.012865  -0.027889  -0.039067  -0.034349  -0.001735
     5  C   -0.043859   0.249242   0.366958   0.385412   0.009534  -0.004434
     6  H   -0.076277  -0.006450  -0.001013   0.009464  -0.009211   0.000348
     7  H    0.686806   0.003461  -0.003140  -0.010650  -0.006502   0.000147
     8  H    0.003461   0.410904  -0.011960  -0.013233   0.000194   0.002764
     9  H   -0.003140  -0.011960   0.578346  -0.029672  -0.000694   0.000020
    10  H   -0.010650  -0.013233  -0.029672   0.554160  -0.000271   0.000123
    11  H   -0.006502   0.000194  -0.000694  -0.000271   0.452923  -0.001007
    12  H    0.000147   0.002764   0.000020   0.000123  -0.001007   0.436292
          Atomic-Atomic Spin Densities.
               1          2          3          4          5          6
     1  O    0.004156  -0.000298   0.000472   0.001851  -0.001664   0.001631
     2  O   -0.000298   0.143259  -0.071215  -0.000401   0.018755  -0.000873
     3  O    0.000472  -0.071215   0.602468   0.003133  -0.103016   0.000905
     4  C    0.001851  -0.000401   0.003133  -0.022893  -0.015029   0.002242
     5  C   -0.001664   0.018755  -0.103016  -0.015029   0.642683  -0.006216
     6  H    0.001631  -0.000873   0.000905   0.002242  -0.006216   0.011881
     7  H   -0.005195   0.000365  -0.000829   0.007607  -0.014828  -0.006008
     8  H   -0.000794   0.010895  -0.020870   0.001744   0.041038  -0.000561
     9  H    0.000146  -0.000395   0.002560   0.003878  -0.006036   0.001220
    10  H    0.000530  -0.000639   0.003779   0.002838  -0.007555   0.000044
    11  H   -0.000091   0.000092  -0.000084   0.000304   0.000251  -0.000305
    12  H   -0.000059   0.000487  -0.000743  -0.000118   0.000727  -0.000018
               7          8          9         10         11         12
     1  O   -0.005195  -0.000794   0.000146   0.000530  -0.000091  -0.000059
     2  O    0.000365   0.010895  -0.000395  -0.000639   0.000092   0.000487
     3  O   -0.000829  -0.020870   0.002560   0.003779  -0.000084  -0.000743
     4  C    0.007607   0.001744   0.003878   0.002838   0.000304  -0.000118
     5  C   -0.014828   0.041038  -0.006036  -0.007555   0.000251   0.000727
     6  H   -0.006008  -0.000561   0.001220   0.000044  -0.000305  -0.000018
     7  H    0.052767   0.000657  -0.002817  -0.001509   0.001041   0.000026
     8  H    0.000657  -0.068942  -0.000028   0.000721   0.000123   0.000044
     9  H   -0.002817  -0.000028  -0.023121   0.004108  -0.000012   0.000006
    10  H   -0.001509   0.000721   0.004108  -0.028133  -0.000056  -0.000045
    11  H    0.001041   0.000123  -0.000012  -0.000056  -0.001630   0.000026
    12  H    0.000026   0.000044   0.000006  -0.000045   0.000026  -0.004366
 Mulliken charges and spin densities:
               1          2
     1  O   -0.406916   0.000684
     2  O   -0.215188   0.100032
     3  O   -0.187967   0.416559
     4  C   -0.029039  -0.014845
     5  C   -0.385962   0.549110
     6  H    0.089889   0.003941
     7  H    0.093466   0.031277
     8  H    0.226045  -0.035974
     9  H    0.123184  -0.020492
    10  H    0.143413  -0.025916
    11  H    0.269915  -0.000342
    12  H    0.279159  -0.004034
 Sum of Mulliken charges =  -0.00000   1.00000
 Mulliken charges and spin densities with hydrogens summed into heavy atoms:
               1          2
     1  O   -0.137001   0.000343
     2  O    0.063972   0.095998
     3  O    0.038078   0.380585
     4  C    0.154316   0.020373
     5  C   -0.119365   0.502701
 Electronic spatial extent (au):  <R**2>=            535.3825
 Charge=             -0.0000 electrons
 Dipole moment (field-independent basis, Debye):
    X=              3.1624    Y=             -0.7521    Z=              0.0626  Tot=              3.2512
 Quadrupole moment (field-independent basis, Debye-Ang):
   XX=            -31.9555   YY=            -27.1423   ZZ=            -31.5117
   XY=             -0.5939   XZ=              2.8931   YZ=              0.5688
 Traceless Quadrupole moment (field-independent basis, Debye-Ang):
   XX=             -1.7523   YY=              3.0608   ZZ=             -1.3085
   XY=             -0.5939   XZ=              2.8931   YZ=              0.5688
 Octapole moment (field-independent basis, Debye-Ang**2):
  XXX=              9.4023  YYY=            -14.7288  ZZZ=             -0.9615  XYY=              3.2238
  XXY=            -10.0490  XXZ=             -0.4283  XZZ=             -3.2110  YZZ=             -1.8659
  YYZ=             -0.1888  XYZ=             -4.1344
 Hexadecapole moment (field-independent basis, Debye-Ang**3):
 XXXX=           -400.3158 YYYY=           -171.9641 ZZZZ=            -53.1731 XXXY=            -16.5876
 XXXZ=              3.3730 YYYX=            -14.5930 YYYZ=              3.0636 ZZZX=              0.1725
 ZZZY=             -0.4473 XXYY=            -86.5015 XXZZ=            -77.3223 YYZZ=            -41.4122
 XXYZ=              1.5922 YYXZ=              5.3158 ZZXY=              0.3477
 N-N= 1.915732934323D+02 E-N=-1.102453771061D+03  KE= 3.042759941739D+02
                          Isotropic Fermi Contact Couplings
        Atom                 a.u.       MegaHertz       Gauss      10(-4) cm-1
     1  O(17)              0.00881      -5.34153      -1.90599      -1.78174
     2  O(17)              0.00961      -5.82584      -2.07881      -1.94329
     3  O(17)              0.10044     -60.88379     -21.72485     -20.30865
     4  C(13)             -0.01331     -14.96048      -5.33827      -4.99028
     5  C(13)              0.21580     242.59981      86.56565      80.92259
     6  H(1)               0.00329      14.69796       5.24460       4.90271
     7  H(1)               0.01503      67.17908      23.97117      22.40853
     8  H(1)              -0.03772    -168.59002     -60.15711     -56.23558
     9  H(1)              -0.00285     -12.74959      -4.54937      -4.25281
    10  H(1)              -0.00585     -26.15878      -9.33410      -8.72563
    11  H(1)              -0.00032      -1.40806      -0.50243      -0.46968
    12  H(1)              -0.00216      -9.63366      -3.43753      -3.21344
 --------------------------------------------------------
       Center         ----  Spin Dipole Couplings  ----
                      3XX-RR        3YY-RR        3ZZ-RR
 --------------------------------------------------------
     1   Atom       -0.002383      0.013561     -0.011178
     2   Atom        0.450473     -0.223388     -0.227085
     3   Atom        1.900096     -1.000370     -0.899726
     4   Atom        0.015419     -0.001425     -0.013994
     5   Atom        0.477809     -0.247434     -0.230375
     6   Atom        0.000209     -0.001920      0.001711
     7   Atom        0.008992     -0.001236     -0.007756
     8   Atom        0.169338     -0.071975     -0.097363
     9   Atom       -0.006865      0.022589     -0.015724
    10   Atom       -0.007940     -0.032446      0.040387
    11   Atom        0.000345      0.003349     -0.003694
    12   Atom       -0.006926      0.009029     -0.002103
 --------------------------------------------------------
                        XY            XZ            YZ
 --------------------------------------------------------
     1   Atom       -0.000139      0.002799      0.006929
     2   Atom        0.255160      0.194166      0.096502
     3   Atom        0.472264      0.669778      0.103031
     4   Atom       -0.020217     -0.007825      0.004837
     5   Atom        0.201177     -0.226501     -0.057298
     6   Atom       -0.004428      0.006927     -0.007492
     7   Atom       -0.002093     -0.000651     -0.001667
     8   Atom        0.111136      0.030402      0.020172
     9   Atom        0.018706     -0.001104      0.030998
    10   Atom        0.008308     -0.003539     -0.012196
    11   Atom       -0.002864      0.000016     -0.000133
    12   Atom       -0.005240     -0.007973      0.020046
 --------------------------------------------------------


 ---------------------------------------------------------------------------------
              Anisotropic Spin Dipole Couplings in Principal Axis System
 ---------------------------------------------------------------------------------

       Atom             a.u.   MegaHertz   Gauss  10(-4) cm-1        Axes

              Baa    -0.0137     0.988     0.353     0.330 -0.2367 -0.2409  0.9413
     1 O(17)  Bbb    -0.0017     0.125     0.045     0.042  0.9710 -0.0912  0.2208
              Bcc     0.0154    -1.113    -0.397    -0.371  0.0327  0.9663  0.2555
 
              Baa    -0.3277    23.713     8.461     7.910 -0.1431  0.8377 -0.5271
     2 O(17)  Bbb    -0.2648    19.163     6.838     6.392 -0.3791  0.4456  0.8110
              Bcc     0.5925   -42.876   -15.299   -14.302  0.9142  0.3159  0.2538
 
              Baa    -1.0757    77.840    27.775    25.965 -0.1831  0.9750  0.1259
     3 O(17)  Bbb    -1.0510    76.053    27.138    25.368 -0.1938 -0.1614  0.9677
              Bcc     2.1268  -153.893   -54.913   -51.333  0.9638  0.1528  0.2185
 
              Baa    -0.0160    -2.143    -0.765    -0.715  0.3151  0.1251  0.9408
     4 C(13)  Bbb    -0.0148    -1.988    -0.709    -0.663  0.4850  0.8309 -0.2729
              Bcc     0.0308     4.131     1.474     1.378  0.8158 -0.5422 -0.2011
 
              Baa    -0.2999   -40.248   -14.362   -13.425 -0.3234  0.8907 -0.3195
     5 C(13)  Bbb    -0.2960   -39.720   -14.173   -13.249  0.1654  0.3857  0.9077
              Bcc     0.5959    79.969    28.535    26.675  0.9317  0.2407 -0.2721
 
              Baa    -0.0080    -4.257    -1.519    -1.420 -0.2008  0.7003  0.6850
     6 H(1)   Bbb    -0.0049    -2.623    -0.936    -0.875  0.8155  0.5070 -0.2793
              Bcc     0.0129     6.880     2.455     2.295  0.5428 -0.5025  0.6729
 
              Baa    -0.0082    -4.393    -1.567    -1.465  0.0669  0.2502  0.9659
     7 H(1)   Bbb    -0.0012    -0.628    -0.224    -0.209  0.1789  0.9494 -0.2583
              Bcc     0.0094     5.020     1.791     1.675  0.9816 -0.1901 -0.0188
 
              Baa    -0.1188   -63.367   -22.611   -21.137 -0.2921  0.8675 -0.4026
     8 H(1)   Bbb    -0.0980   -52.291   -18.659   -17.443 -0.2444  0.3393  0.9084
              Bcc     0.2168   115.659    41.270    38.580  0.9246  0.3638  0.1128
 
              Baa    -0.0368   -19.640    -7.008    -6.551  0.3522 -0.5178  0.7796
     9 H(1)   Bbb    -0.0080    -4.278    -1.526    -1.427  0.8869 -0.0815 -0.4547
              Bcc     0.0448    23.918     8.534     7.978  0.2990  0.8516  0.4305
 
              Baa    -0.0365   -19.472    -6.948    -6.495 -0.2606  0.9553  0.1395
    10 H(1)   Bbb    -0.0063    -3.386    -1.208    -1.130  0.9606  0.2422  0.1360
              Bcc     0.0428    22.858     8.156     7.625 -0.0961 -0.1695  0.9808
 
              Baa    -0.0037    -1.973    -0.704    -0.658  0.0131  0.0241  0.9996
    11 H(1)   Bbb    -0.0014    -0.739    -0.264    -0.247  0.8557  0.5169 -0.0237
              Bcc     0.0051     2.712     0.968     0.905 -0.5173  0.8557 -0.0139
 
              Baa    -0.0184    -9.815    -3.502    -3.274  0.3142 -0.5204  0.7940
    12 H(1)   Bbb    -0.0083    -4.427    -1.580    -1.477  0.9130  0.3948 -0.1026
              Bcc     0.0267    14.242     5.082     4.750 -0.2601  0.7572  0.5992
 

 ---------------------------------------------------------------------------------

 No NMR shielding tensors so no spin-rotation constants.
 Leave Link  601 at Thu May 30 06:30:07 2019, MaxMem=   671088640 cpu:               8.1 elap:               0.4
 (Enter /shared/centos7/gaussian/g16/l701.exe)
 ... and contract with generalized density number  0.
 Compute integral first derivatives.
 Leave Link  701 at Thu May 30 06:30:08 2019, MaxMem=   671088640 cpu:               4.7 elap:               0.3
 (Enter /shared/centos7/gaussian/g16/l702.exe)
 L702 exits ... SP integral derivatives will be done elsewhere.
 Leave Link  702 at Thu May 30 06:30:08 2019, MaxMem=   671088640 cpu:               1.4 elap:               0.1
 (Enter /shared/centos7/gaussian/g16/l703.exe)
 Integral derivatives from FoFJK, PRISM(SPDF).
 Compute integral first derivatives, UseDBF=F ICtDFT=           0.
 Calling FoFJK, ICntrl=      2127 FMM=F ISym2X=0 I1Cent= 0 IOpClX= 1 NMat=1 NMatS=1 NMatT=0.
 FoFJK:  IHMeth= 1 ICntrl=    2127 DoSepK=F KAlg= 0 I1Cent=           0 FoldK=F
 IRaf=         0 NMat=       1 IRICut=       1 DoRegI=T DoRafI=F ISym2E= 0 IDoP0=0 IntGTp=1.
 FoFCou: FMM=F IPFlag=           0 FMFlag=      100000 FMFlg1=         800
         NFxFlg=           0 DoJE=F BraDBF=F KetDBF=F FulRan=T
         wScrn=  0.000000 ICntrl=      2127 IOpCl=  1 I1Cent=           0 NGrid=           0
         NMat0=    1 NMatS0=      1 NMatT0=    0 NMatD0=    1 NMtDS0=    0 NMtDT0=    0
 Symmetry not used in FoFCou.
 Leave Link  703 at Thu May 30 06:30:12 2019, MaxMem=   671088640 cpu:              90.3 elap:               4.5
 (Enter /shared/centos7/gaussian/g16/l716.exe)
 Dipole        = 1.24419065D+00-2.95904360D-01 2.46177836D-02
 ***** Axes restored to original set *****
 -------------------------------------------------------------------
 Center     Atomic                   Forces (Hartrees/Bohr)
 Number     Number              X              Y              Z
 -------------------------------------------------------------------
      1        8          -0.022687625   -0.016485929   -0.014631240
      2        8          -0.033588697   -0.046687150   -0.010296486
      3        8           0.027818750    0.028794587    0.023509560
      4        6           0.012361701    0.014722043   -0.013843601
      5        6          -0.009268848    0.010960482   -0.001782404
      6        1          -0.001953198    0.002732926    0.009649036
      7        1           0.006197878   -0.001892588    0.001787063
      8        1          -0.016529674    0.019116727    0.002618956
      9        1          -0.003295250   -0.013213940    0.003323690
     10        1           0.006843790   -0.005204975   -0.012024969
     11        1           0.018274520    0.005966737    0.024466832
     12        1           0.015826652    0.001191080   -0.012776436
 -------------------------------------------------------------------
 Cartesian Forces:  Max     0.046687150 RMS     0.016611663
 Leave Link  716 at Thu May 30 06:30:13 2019, MaxMem=   671088640 cpu:               1.2 elap:               0.1
 (Enter /shared/centos7/gaussian/g16/l103.exe)

 GradGradGradGradGradGradGradGradGradGradGradGradGradGradGradGradGradGrad
 Berny optimization.
 FormGI is forming the generalized inverse of G from B-inverse, IUseBI=4.
 Internal  Forces:  Max     0.053928541 RMS     0.011989157
 Search for a local minimum.
 Step number   1 out of a maximum of  100
 All quantities printed in internal units (Hartrees-Bohrs-Radians)
 RMS Force = .11835D-01 SwitMx=.10000D-02 MixMth= 1
 Mixed Optimization -- RFO/linear search
 Second derivative matrix not updated -- first step.
 ITU=  0
     Eigenvalues ---    0.00230   0.00230   0.00467   0.01675   0.02406
     Eigenvalues ---    0.04926   0.04979   0.05157   0.05961   0.11344
     Eigenvalues ---    0.11654   0.13639   0.13987   0.16000   0.16000
     Eigenvalues ---    0.16000   0.16000   0.22001   0.30118   0.32253
     Eigenvalues ---    0.32529   0.32552   0.32557   0.45417   0.48968
     Eigenvalues ---    0.49449   0.629371000.000001000.000001000.00000
     Eigenvalues --- 1000.000001000.000001000.000001000.000001000.00000
     Eigenvalues --- 1000.000001000.000001000.000001000.000001000.00000
     Eigenvalues --- 1000.000001000.000001000.000001000.00000
 RFO step:  Lambda=-1.70178200D-02 EMin= 2.30000000D-03
 Linear search not attempted -- first point.
 Iteration  1 RMS(Cart)=  0.17256834 RMS(Int)=  0.03834974
 Iteration  2 RMS(Cart)=  0.11879970 RMS(Int)=  0.01091489
 Iteration  3 RMS(Cart)=  0.01364306 RMS(Int)=  0.00032893
 Iteration  4 RMS(Cart)=  0.00015710 RMS(Int)=  0.00032350
 Iteration  5 RMS(Cart)=  0.00000003 RMS(Int)=  0.00032350
 Iteration  1 RMS(Cart)=  0.00000000 RMS(Int)=  0.00000000
 ITry= 1 IFail=0 DXMaxC= 1.03D+00 DCOld= 1.00D+10 DXMaxT= 3.00D-01 DXLimC= 3.00D+00 Rises=F
 Variable       Old X    -DE/DX   Delta X   Delta X   Delta X     New X
                                 (Linear)    (Quad)   (Total)
    R1        2.64795   0.01385   0.00000   0.02939   0.02939   2.67734
    R2        1.87622  -0.03083   0.00000  -0.06086  -0.06086   1.81536
    R3        2.48689   0.05393   0.00000   0.08343   0.08343   2.57032
    R4        1.87125  -0.01963   0.00000  -0.03838  -0.03838   1.83287
    R5        2.19771   0.01621   0.00000   0.00000   0.00000   2.19771
    R6        2.87728  -0.01489   0.00000  -0.04679  -0.04679   2.83049
    R7        2.10383  -0.00985   0.00000  -0.02901  -0.02901   2.07483
    R8        2.09845  -0.00594   0.00000  -0.01735  -0.01735   2.08111
    R9        2.58638  -0.00597   0.00000   0.00000  -0.00000   2.58638
   R10        2.09836  -0.01360   0.00000  -0.03969  -0.03969   2.05867
   R11        2.09887  -0.01431   0.00000  -0.04182  -0.04182   2.05705
    A1        1.85685   0.00741   0.00000   0.04187   0.04187   1.89872
    A2        1.80926   0.00853   0.00000   0.04819   0.04819   1.85745
    A3        1.81886   0.00590   0.00000   0.03333   0.03333   1.85219
    A4        1.95613  -0.01255   0.00000  -0.05566  -0.05588   1.90025
    A5        1.91580   0.00678   0.00000   0.04178   0.04159   1.95739
    A6        1.91101   0.00522   0.00000   0.01819   0.01691   1.92792
    A7        1.91664   0.00131   0.00000   0.00279   0.00327   1.91992
    A8        1.90369  -0.00014   0.00000  -0.01586  -0.01611   1.88758
    A9        1.85793   0.00004   0.00000   0.01202   0.01160   1.86953
   A10        1.92168  -0.00221   0.00000  -0.02226  -0.02227   1.89942
   A11        1.95172   0.00290   0.00000   0.02270   0.02234   1.97405
   A12        1.96135  -0.00001   0.00000   0.00372   0.00332   1.96466
   A13        1.88120  -0.00190   0.00000  -0.02071  -0.02053   1.86067
   A14        1.81917  -0.00007   0.00000  -0.00934  -0.00939   1.80978
   A15        1.92259   0.00093   0.00000   0.02201   0.02156   1.94415
   A16        2.53345   0.01684   0.00000   0.00000   0.00000   2.53345
    D1       -3.07949  -0.00114   0.00000  -0.01953  -0.01931  -3.09880
    D2       -0.94479  -0.00323   0.00000  -0.02436  -0.02519  -0.96998
    D3        1.08879   0.00373   0.00000   0.02470   0.02532   1.11411
    D4       -1.59873   0.00473   0.00000   0.11505   0.11505  -1.48368
    D5        1.67081   0.00674   0.00000   0.34904   0.34904   2.01986
    D6        1.00593   0.00187   0.00000   0.05156   0.05138   1.05731
    D7        3.09682  -0.00011   0.00000   0.02533   0.02489   3.12171
    D8       -1.01357   0.00336   0.00000   0.07498   0.07483  -0.93874
    D9       -1.12829   0.00086   0.00000   0.03422   0.03421  -1.09408
   D10        0.96260  -0.00113   0.00000   0.00799   0.00772   0.97033
   D11        3.13540   0.00235   0.00000   0.05764   0.05766  -3.09012
   D12        3.12505   0.00016   0.00000   0.02727   0.02768  -3.13046
   D13       -1.06725  -0.00183   0.00000   0.00104   0.00119  -1.06605
   D14        1.10555   0.00164   0.00000   0.05069   0.05114   1.15668
   D15       -1.63644   0.00373   0.00000   0.15985   0.15992  -1.47652
   D16        2.51359   0.00273   0.00000   0.15872   0.15853   2.67212
   D17        0.47078   0.00255   0.00000   0.14744   0.14756   0.61834
         Item               Value     Threshold  Converged?
 Maximum Force            0.053929     0.002500     NO 
 RMS     Force            0.011835     0.001667     NO 
 Maximum Displacement     1.034613     0.010000     NO 
 RMS     Displacement     0.258466     0.006667     NO 
 Predicted change in Energy=-1.071075D-02
 Lowest energy point so far.  Saving SCF results.
 GradGradGradGradGradGradGradGradGradGradGradGradGradGradGradGradGradGrad

 Leave Link  103 at Thu May 30 06:30:13 2019, MaxMem=   671088640 cpu:               1.3 elap:               0.1
 (Enter /shared/centos7/gaussian/g16/l202.exe)
                          Input orientation:                          
 ---------------------------------------------------------------------
 Center     Atomic      Atomic             Coordinates (Angstroms)
 Number     Number       Type             X           Y           Z
 ---------------------------------------------------------------------
      1          8           0       -6.091884    0.868373    8.283275
      2          8           0       -3.227859   -0.470110    8.808426
      3          8           0       -3.289929    0.620359    9.619009
      4          6           0       -5.419823    1.945827    7.655018
      5          6           0       -4.409028    2.507622    8.606953
      6          1           0       -4.927875    1.639546    6.722454
      7          1           0       -6.131362    2.746238    7.398385
      8          1           0       -3.508424    1.527117    8.924343
      9          1           0       -3.835787    3.332022    8.184394
     10          1           0       -4.844624    2.778038    9.567195
     11          1           0       -6.712594    0.484466    7.658631
     12          1           0       -4.140387   -0.777353    8.691705
 ---------------------------------------------------------------------
                    Distance matrix (angstroms):
                    1          2          3          4          5
     1  O    0.000000
     2  O    3.204677   0.000000
     3  O    3.113944   1.360154   0.000000
     4  C    1.416785   3.460030   3.185997   0.000000
     5  C    2.371478   3.209772   2.416278   1.497832   0.000000
     6  H    2.094226   3.419354   3.480179   1.097951   2.138713
     7  H    2.076286   4.556691   4.186200   1.101274   2.117548
     8  H    2.742112   2.020166   1.162976   2.332370   1.368654
     9  H    3.342052   3.900666   3.115959   2.170471   1.089402
    10  H    2.617428   3.706767   2.659951   2.163296   1.088546
    11  H    0.960648   3.791651   3.946668   1.951114   3.209188
    12  H    2.585260   0.969912   1.880630   3.182356   3.297030
                    6          7          8          9         10
     6  H    0.000000
     7  H    1.769188   0.000000
     8  H    2.622174   3.270261   0.000000
     9  H    2.488855   2.496120   1.977972   0.000000
    10  H    3.065231   2.521992   1.939972   1.799108   0.000000
    11  H    2.322898   2.349717   3.599424   4.081791   3.520284
    12  H    3.215508   4.248806   2.400850   4.151759   3.728704
                   11         12
    11  H    0.000000
    12  H    3.045600   0.000000
 Stoichiometry    C2H7O3(2)
 Framework group  C1[X(C2H7O3)]
 Deg. of freedom    30
 Full point group                 C1      NOp   1
 RotChk:  IX=0 Diff= 9.70D-02
 Largest Abelian subgroup         C1      NOp   1
 Largest concise Abelian subgroup C1      NOp   1
                         Standard orientation:                         
 ---------------------------------------------------------------------
 Center     Atomic      Atomic             Coordinates (Angstroms)
 Number     Number       Type             X           Y           Z
 ---------------------------------------------------------------------
      1          8           0        1.141364   -1.063276   -0.441237
      2          8           0       -1.910771   -0.557501    0.394599
      3          8           0       -1.553533    0.496003   -0.388044
      4          6           0        1.499735    0.025802    0.391084
      5          6           0        0.719136    1.233455   -0.028129
      6          1           0        1.319616   -0.187862    1.452876
      7          1           0        2.571383    0.255825    0.284009
      8          1           0       -0.615950    0.967398    0.113191
      9          1           0        0.928170    2.110867    0.582812
     10          1           0        0.827222    1.453261   -1.088759
     11          1           0        1.613808   -1.846213   -0.146869
     12          1           0       -1.373945   -1.310629    0.102463
 ---------------------------------------------------------------------
 Rotational constants (GHZ):           7.0553956           2.8196383           2.2595792
 Leave Link  202 at Thu May 30 06:30:13 2019, MaxMem=   671088640 cpu:               0.1 elap:               0.0
 (Enter /shared/centos7/gaussian/g16/l301.exe)
 Standard basis: CC-pVTZ (5D, 7F)
 Ernie: Thresh=  0.10000D-02 Tol=  0.10000D-05 Strict=F.
 Ernie:  15 primitive shells out of 186 were deleted.
 There are   280 symmetry adapted cartesian basis functions of A   symmetry.
 There are   248 symmetry adapted basis functions of A   symmetry.
   248 basis functions,   379 primitive gaussians,   280 cartesian basis functions
    22 alpha electrons       21 beta electrons
       nuclear repulsion energy       190.0029014114 Hartrees.
 IExCor= 4336 DFT=T Ex+Corr=M062X ExCW=0 ScaHFX=  0.540000
 ScaDFX=  1.000000  1.000000  1.000000  1.000000 ScalE2=  1.000000  1.000000
 IRadAn=      1 IRanWt=     -1 IRanGd=            0 ICorTp=0 IEmpDi=  4
 NAtoms=   12 NActive=   12 NUniq=   12 SFac= 1.00D+00 NAtFMM=   60 NAOKFM=F Big=F
 Integral buffers will be    131072 words long.
 Raffenetti 2 integral format.
 Two-electron integral symmetry is turned on.
 Leave Link  301 at Thu May 30 06:30:13 2019, MaxMem=   671088640 cpu:               1.1 elap:               0.1
 (Enter /shared/centos7/gaussian/g16/l302.exe)
 NPDir=0 NMtPBC=     1 NCelOv=     1 NCel=       1 NClECP=     1 NCelD=      1
         NCelK=      1 NCelE2=     1 NClLst=     1 CellRange=     0.0.
 One-electron integrals computed using PRISM.
 One-electron integral symmetry used in STVInt
 NBasis=   248 RedAO= T EigKep=  8.81D-04  NBF=   248
 NBsUse=   248 1.00D-06 EigRej= -1.00D+00 NBFU=   248
 Precomputing XC quadrature grid using
 IXCGrd= 4 IRadAn=           1 IRanWt=          -1 IRanGd=           0 AccXCQ= 0.00D+00.
 Generated NRdTot=       0 NPtTot=           0 NUsed=           0 NTot=          32
 NSgBfM=   280   280   280   280   280 MxSgAt=    12 MxSgA2=    12.
 Leave Link  302 at Thu May 30 06:30:13 2019, MaxMem=   671088640 cpu:               5.8 elap:               0.3
 (Enter /shared/centos7/gaussian/g16/l303.exe)
 DipDrv:  MaxL=1.
 Leave Link  303 at Thu May 30 06:30:13 2019, MaxMem=   671088640 cpu:               0.5 elap:               0.0
 (Enter /shared/centos7/gaussian/g16/l401.exe)
 Initial guess from the checkpoint file:  "/scratch/harms.n/gauss_scrdir/Gau-41113.chk"
 B after Tr=    -0.000000    0.000000   -0.000000
         Rot=    0.999361   -0.001903    0.016718    0.031527 Ang=  -4.10 deg.
 Guess basis will be translated and rotated to current coordinates.
 JPrj=2 DoOrth=T DoCkMO=T.
 Initial guess <Sx>= 0.0000 <Sy>= 0.0000 <Sz>= 0.5000 <S**2>= 0.7602 S= 0.5051
 Generating alternative initial guess.
 ExpMin= 1.03D-01 ExpMax= 1.53D+04 ExpMxC= 5.22D+02 IAcc=1 IRadAn=         1 AccDes= 0.00D+00
 Harris functional with IExCor= 1009 and IRadAn=       1 diagonalized for initial guess.
 HarFok:  IExCor= 1009 AccDes= 0.00D+00 IRadAn=         1 IDoV= 1 UseB2=F ITyADJ=14
 ICtDFT=  3500011 ScaDFX=  1.000000  1.000000  1.000000  1.000000
 FoFCou: FMM=F IPFlag=           0 FMFlag=      100000 FMFlg1=           0
         NFxFlg=           0 DoJE=T BraDBF=F KetDBF=T FulRan=T
         wScrn=  0.000000 ICntrl=       500 IOpCl=  0 I1Cent=   200000004 NGrid=           0
         NMat0=    1 NMatS0=      1 NMatT0=    0 NMatD0=    1 NMtDS0=    0 NMtDT0=    0
 Petite list used in FoFCou.
 Harris En= -305.775484474433    
 Leave Link  401 at Thu May 30 06:30:14 2019, MaxMem=   671088640 cpu:              18.7 elap:               1.0
 (Enter /shared/centos7/gaussian/g16/l502.exe)
 Integral symmetry usage will be decided dynamically.
 UHF open shell SCF:
 Using DIIS extrapolation, IDIIS=  1040.
 NGot=   671088640 LenX=   670923676 LenY=   670844835
 Requested convergence on RMS density matrix=1.00D-08 within 900 cycles.
 Requested convergence on MAX density matrix=1.00D-06.
 Requested convergence on             energy=1.00D-06.
 No special actions if energy rises.
 Fock matrices will be formed incrementally for  20 cycles.

 Cycle   1  Pass 1  IDiag  1:
 FoFJK:  IHMeth= 1 ICntrl=       0 DoSepK=F KAlg= 0 I1Cent=           0 FoldK=F
 IRaf= 980000000 NMat=       1 IRICut=       1 DoRegI=T DoRafI=F ISym2E= 0 IDoP0=0 IntGTp=1.
 FoFCou: FMM=F IPFlag=           0 FMFlag=      100000 FMFlg1=           0
         NFxFlg=           0 DoJE=F BraDBF=F KetDBF=F FulRan=T
         wScrn=  0.000000 ICntrl=         0 IOpCl=  1 I1Cent=           0 NGrid=           0
         NMat0=    1 NMatS0=      1 NMatT0=    0 NMatD0=    1 NMtDS0=    0 NMtDT0=    0
 Symmetry not used in FoFCou.
 E= -305.744988595448    
 DIIS: error= 1.57D-02 at cycle   1 NSaved=   1.
 NSaved= 1 IEnMin= 1 EnMin= -305.744988595448     IErMin= 1 ErrMin= 1.57D-02
 ErrMax= 1.57D-02  0.00D+00 EMaxC= 1.00D-01 BMatC= 3.86D-01 BMatP= 3.86D-01
 IDIUse=3 WtCom= 8.43D-01 WtEn= 1.57D-01
 Coeff-Com:  0.100D+01
 Coeff-En:   0.100D+01
 Coeff:      0.100D+01
 Recover alternate guess density for next cycle.
 RMSDP=2.00D-03 MaxDP=5.81D-02              OVMax= 0.00D+00

 Cycle   2  Pass 1  IDiag  1:
 RMSU=  1.97D-03    CP:  9.70D-01
 E= -305.737108863040     Delta-E=        0.007879732408 Rises=F Damp=F
 Switch densities from cycles 1 and 2 for lowest energy.
 DIIS: error= 2.06D-02 at cycle   2 NSaved=   2.
 NSaved= 2 IEnMin= 1 EnMin= -305.744988595448     IErMin= 1 ErrMin= 1.57D-02
 ErrMax= 2.06D-02  0.00D+00 EMaxC= 1.00D+00 BMatC= 8.30D-01 BMatP= 3.86D-01
 IDIUse=1 WtCom= 1.00D+00 WtEn= 0.00D+00
 Coeff-Com:  0.692D+00 0.308D+00
 Coeff:      0.692D+00 0.308D+00
 Gap=     0.346 Goal=   None    Shift=    0.000
 Gap=     0.275 Goal=   None    Shift=    0.000
 RMSDP=1.36D-03 MaxDP=3.99D-02 DE= 7.88D-03 OVMax= 1.55D-01

 Cycle   3  Pass 1  IDiag  1:
 RMSU=  1.05D-03    CP:  9.89D-01  4.37D-01
 E= -305.873620656480     Delta-E=       -0.136511793440 Rises=F Damp=F
 DIIS: error= 6.63D-03 at cycle   3 NSaved=   3.
 NSaved= 3 IEnMin= 3 EnMin= -305.873620656480     IErMin= 3 ErrMin= 6.63D-03
 ErrMax= 6.63D-03  0.00D+00 EMaxC= 1.00D+00 BMatC= 7.62D-02 BMatP= 3.86D-01
 IDIUse=1 WtCom= 1.00D+00 WtEn= 0.00D+00
 Coeff-Com: -0.193D-01 0.211D+00 0.808D+00
 Coeff:     -0.193D-01 0.211D+00 0.808D+00
 Gap=     0.337 Goal=   None    Shift=    0.000
 Gap=     0.271 Goal=   None    Shift=    0.000
 RMSDP=4.76D-04 MaxDP=1.42D-02 DE=-1.37D-01 OVMax= 3.92D-02

 Cycle   4  Pass 1  IDiag  1:
 RMSU=  2.48D-04    CP:  9.85D-01  6.19D-01  8.21D-01
 E= -305.889851704447     Delta-E=       -0.016231047968 Rises=F Damp=F
 DIIS: error= 1.93D-03 at cycle   4 NSaved=   4.
 NSaved= 4 IEnMin= 4 EnMin= -305.889851704447     IErMin= 4 ErrMin= 1.93D-03
 ErrMax= 1.93D-03  0.00D+00 EMaxC= 1.00D+00 BMatC= 7.05D-03 BMatP= 7.62D-02
 IDIUse=1 WtCom= 1.00D+00 WtEn= 0.00D+00
 Coeff-Com: -0.362D-01 0.348D-01 0.265D+00 0.737D+00
 Coeff:     -0.362D-01 0.348D-01 0.265D+00 0.737D+00
 Gap=     0.340 Goal=   None    Shift=    0.000
 Gap=     0.267 Goal=   None    Shift=    0.000
 RMSDP=1.26D-04 MaxDP=3.39D-03 DE=-1.62D-02 OVMax= 9.55D-03

 Cycle   5  Pass 1  IDiag  1:
 RMSU=  1.12D-04    CP:  9.85D-01  6.24D-01  8.74D-01  9.52D-01
 E= -305.890993923723     Delta-E=       -0.001142219276 Rises=F Damp=F
 DIIS: error= 9.55D-04 at cycle   5 NSaved=   5.
[...]
 Alpha virt. eigenvalues --    3.57069   3.63010   3.63937   3.67656   3.68604
 Alpha virt. eigenvalues --    3.69737   3.74562   3.76620   3.78538   3.79165
 Alpha virt. eigenvalues --    3.81072   3.83995   3.86937   3.88179   3.89959
 Alpha virt. eigenvalues --    3.90425   3.95114   3.97233   3.97411   3.99414
 Alpha virt. eigenvalues --    4.01777   4.02582   4.04154   4.05616   4.11627
 Alpha virt. eigenvalues --    4.15204   4.16414   4.18152   4.21586   4.23103
 Alpha virt. eigenvalues --    4.26875   4.31075   4.33821   4.40811   4.41822
 Alpha virt. eigenvalues --    4.44451   4.49699   4.51843   4.57824   4.65946
 Alpha virt. eigenvalues --    4.70146   4.72797   4.76598   4.80896   4.83872
 Alpha virt. eigenvalues --    4.86775   4.88439   4.89893   4.94040   5.01558
 Alpha virt. eigenvalues --    5.03434   5.05219   5.09897   5.11270   5.13615
 Alpha virt. eigenvalues --    5.17651   5.22743   5.31070   5.32344   5.33581
 Alpha virt. eigenvalues --    5.43089   5.50565   5.54226   5.62445   5.68326
 Alpha virt. eigenvalues --    5.74093   5.77346   5.85091   5.93130   5.96699
 Alpha virt. eigenvalues --    6.13930   6.16601   6.20583   6.31014   6.36650
 Alpha virt. eigenvalues --    6.38855   6.47981   6.49641   6.52999   6.60402
 Alpha virt. eigenvalues --    6.64173   6.66042   6.66378   6.69357   6.73514
 Alpha virt. eigenvalues --    6.76187   6.85348   6.87190   6.88896   7.03182
 Alpha virt. eigenvalues --    7.15380   7.17425   7.21593   7.38733   7.45478
 Alpha virt. eigenvalues --    7.63130   9.98085  11.50476  11.89958  12.24288
 Alpha virt. eigenvalues --   12.82650
  Beta  occ. eigenvalues --  -19.67416 -19.67139 -19.64587 -10.60547 -10.55004
  Beta  occ. eigenvalues --   -1.24657  -1.16802  -0.95621  -0.85661  -0.70318
  Beta  occ. eigenvalues --   -0.62565  -0.59953  -0.55674  -0.53631  -0.49504
  Beta  occ. eigenvalues --   -0.48881  -0.46399  -0.43230  -0.38530  -0.35274
  Beta  occ. eigenvalues --   -0.34938
  Beta virt. eigenvalues --   -0.07126   0.04551   0.08512   0.10702   0.11428
  Beta virt. eigenvalues --    0.13316   0.14760   0.17884   0.19658   0.21221
  Beta virt. eigenvalues --    0.25235   0.28257   0.30410   0.37177   0.37686
  Beta virt. eigenvalues --    0.38118   0.42735   0.43386   0.45239   0.47763
  Beta virt. eigenvalues --    0.48903   0.49645   0.51288   0.52003   0.53726
  Beta virt. eigenvalues --    0.57123   0.59063   0.59504   0.61672   0.63674
  Beta virt. eigenvalues --    0.65772   0.68339   0.73881   0.74225   0.75761
  Beta virt. eigenvalues --    0.76697   0.81153   0.84391   0.84651   0.88331
  Beta virt. eigenvalues --    0.90969   0.95282   0.97200   1.00329   1.03184
  Beta virt. eigenvalues --    1.05081   1.07237   1.09062   1.11660   1.13853
  Beta virt. eigenvalues --    1.14848   1.16432   1.17188   1.19233   1.26220
  Beta virt. eigenvalues --    1.27491   1.29332   1.31347   1.35024   1.36737
  Beta virt. eigenvalues --    1.39025   1.40716   1.42298   1.48212   1.51255
  Beta virt. eigenvalues --    1.53963   1.56051   1.60433   1.64906   1.68653
  Beta virt. eigenvalues --    1.74519   1.84781   1.86338   1.94233   1.97035
  Beta virt. eigenvalues --    1.98370   2.01952   2.08300   2.08565   2.12397
  Beta virt. eigenvalues --    2.16567   2.22051   2.23576   2.27768   2.31470
  Beta virt. eigenvalues --    2.36549   2.40723   2.44035   2.48047   2.51629
  Beta virt. eigenvalues --    2.54538   2.59144   2.63736   2.66255   2.71605
  Beta virt. eigenvalues --    2.76018   2.78728   2.86880   2.88054   2.90145
  Beta virt. eigenvalues --    2.95236   2.96182   2.98314   3.01066   3.02178
  Beta virt. eigenvalues --    3.04154   3.06790   3.08740   3.11835   3.12559
  Beta virt. eigenvalues --    3.17578   3.19739   3.20778   3.27274   3.28058
  Beta virt. eigenvalues --    3.29245   3.34534   3.36507   3.37221   3.40023
  Beta virt. eigenvalues --    3.42297   3.44345   3.46469   3.47767   3.52623
  Beta virt. eigenvalues --    3.55632   3.57355   3.63377   3.64424   3.68077
  Beta virt. eigenvalues --    3.68937   3.69963   3.74975   3.76954   3.78824
  Beta virt. eigenvalues --    3.79417   3.81432   3.84294   3.87441   3.88514
  Beta virt. eigenvalues --    3.89824   3.91031   3.95239   3.97468   3.97590
  Beta virt. eigenvalues --    3.99930   4.02068   4.02614   4.04369   4.06473
  Beta virt. eigenvalues --    4.12254   4.15691   4.16922   4.18617   4.21811
  Beta virt. eigenvalues --    4.23242   4.27220   4.31603   4.34474   4.41031
  Beta virt. eigenvalues --    4.42207   4.45076   4.51035   4.53408   4.58225
  Beta virt. eigenvalues --    4.66239   4.70462   4.73764   4.77207   4.81502
  Beta virt. eigenvalues --    4.85622   4.87292   4.89162   4.90156   4.95056
  Beta virt. eigenvalues --    5.02402   5.04141   5.06682   5.10384   5.11982
  Beta virt. eigenvalues --    5.14163   5.18819   5.23009   5.32572   5.33582
  Beta virt. eigenvalues --    5.34644   5.43786   5.53008   5.55127   5.63245
  Beta virt. eigenvalues --    5.70598   5.74588   5.79776   5.85142   5.93217
  Beta virt. eigenvalues --    5.97090   6.14061   6.16858   6.22611   6.31750
  Beta virt. eigenvalues --    6.37082   6.38934   6.48733   6.50032   6.54176
  Beta virt. eigenvalues --    6.61898   6.64755   6.66482   6.68354   6.69501
  Beta virt. eigenvalues --    6.75280   6.76403   6.85786   6.87393   6.89993
  Beta virt. eigenvalues --    7.03230   7.15339   7.17511   7.22666   7.38784
  Beta virt. eigenvalues --    7.46001   7.63155   9.98965  11.50686  11.90126
  Beta virt. eigenvalues --   12.24819  12.83394
          Condensed to atoms (all electrons):
               1          2          3          4          5          6
     1  O    7.942657  -0.020934   0.002752   0.272087  -0.042439  -0.055192
     2  O   -0.020934   7.904859   0.059749   0.017752  -0.007164   0.007111
     3  O    0.002752   0.059749   8.072100  -0.006794  -0.082581  -0.000318
     4  C    0.272087   0.017752  -0.006794   4.811224   0.289002   0.414485
     5  C   -0.042439  -0.007164  -0.082581   0.289002   5.301883  -0.064572
     6  H   -0.055192   0.007111  -0.000318   0.414485  -0.064572   0.624390
     7  H   -0.037392   0.000726  -0.000306   0.406910  -0.033573  -0.056335
     8  H   -0.001128  -0.025378   0.189689  -0.011363   0.232774  -0.004879
     9  H    0.003613   0.000036   0.001570  -0.038291   0.377426   0.002230
    10  H    0.003721   0.000829  -0.001544  -0.031442   0.378653   0.008735
    11  H    0.307078   0.000841   0.000063  -0.027801   0.007917  -0.002105
    12  H    0.035512   0.307766  -0.032824  -0.001735  -0.005351  -0.005943
               7          8          9         10         11         12
     1  O   -0.037392  -0.001128   0.003613   0.003721   0.307078   0.035512
     2  O    0.000726  -0.025378   0.000036   0.000829   0.000841   0.307766
     3  O   -0.000306   0.189689   0.001570  -0.001544   0.000063  -0.032824
     4  C    0.406910  -0.011363  -0.038291  -0.031442  -0.027801  -0.001735
     5  C   -0.033573   0.232774   0.377426   0.378653   0.007917  -0.005351
     6  H   -0.056335  -0.004879   0.002230   0.008735  -0.002105  -0.005943
     7  H    0.617027   0.002316  -0.003685  -0.005962  -0.007972   0.000969
     8  H    0.002316   0.401391  -0.012376  -0.008801  -0.000082   0.003378
     9  H   -0.003685  -0.012376   0.568726  -0.026932  -0.000676   0.000085
    10  H   -0.005962  -0.008801  -0.026932   0.534003  -0.000006  -0.000520
    11  H   -0.007972  -0.000082  -0.000676  -0.000006   0.459523  -0.002314
    12  H    0.000969   0.003378   0.000085  -0.000520  -0.002314   0.424077
          Atomic-Atomic Spin Densities.
               1          2          3          4          5          6
     1  O    0.006299  -0.000426   0.000510   0.000985  -0.001221   0.001884
     2  O   -0.000426   0.091517  -0.050552  -0.001221   0.016877  -0.003050
     3  O    0.000510  -0.050552   0.575387   0.002756  -0.104690   0.002080
     4  C    0.000985  -0.001221   0.002756  -0.036427  -0.017990   0.004951
     5  C   -0.001221   0.016877  -0.104690  -0.017990   0.699207  -0.006719
     6  H    0.001884  -0.003050   0.002080   0.004951  -0.006719   0.016359
     7  H   -0.005062   0.000583  -0.001287   0.010287  -0.019881  -0.007320
     8  H   -0.000821   0.008333  -0.025070   0.002517   0.045981   0.000013
     9  H    0.000159  -0.000616   0.003390   0.003744  -0.005515   0.001238
    10  H    0.000747  -0.000454   0.003700   0.001528  -0.005014   0.000007
    11  H   -0.000273   0.000057  -0.000092   0.000345   0.000135  -0.000326
    12  H   -0.000007   0.000316  -0.000741  -0.000047   0.000445  -0.000126
               7          8          9         10         11         12
     1  O   -0.005062  -0.000821   0.000159   0.000747  -0.000273  -0.000007
     2  O    0.000583   0.008333  -0.000616  -0.000454   0.000057   0.000316
     3  O   -0.001287  -0.025070   0.003390   0.003700  -0.000092  -0.000741
     4  C    0.010287   0.002517   0.003744   0.001528   0.000345  -0.000047
     5  C   -0.019881   0.045981  -0.005515  -0.005014   0.000135   0.000445
     6  H   -0.007320   0.000013   0.001238   0.000007  -0.000326  -0.000126
     7  H    0.062650   0.000939  -0.003468  -0.001866   0.000869   0.000035
     8  H    0.000939  -0.063863  -0.000518   0.000492   0.000101  -0.000055
     9  H   -0.003468  -0.000518  -0.027646   0.004456  -0.000000  -0.000006
    10  H   -0.001866   0.000492   0.004456  -0.031372  -0.000075   0.000029
    11  H    0.000869   0.000101  -0.000000  -0.000075  -0.001214   0.000065
    12  H    0.000035  -0.000055  -0.000006   0.000029   0.000065  -0.002982
 Mulliken charges and spin densities:
               1          2
     1  O   -0.410338   0.002774
     2  O   -0.246192   0.061363
     3  O   -0.201556   0.405390
     4  C   -0.094036  -0.028573
     5  C   -0.351976   0.601615
     6  H    0.132392   0.008992
     7  H    0.117277   0.036478
     8  H    0.234458  -0.031949
     9  H    0.128273  -0.024783
    10  H    0.149265  -0.027823
    11  H    0.265533  -0.000409
    12  H    0.276898  -0.003076
 Sum of Mulliken charges =  -0.00000   1.00000
 Mulliken charges and spin densities with hydrogens summed into heavy atoms:
               1          2
     1  O   -0.144805   0.002366
     2  O    0.030707   0.058287
     3  O    0.032902   0.373441
     4  C    0.155634   0.016898
     5  C   -0.074438   0.549009
 Electronic spatial extent (au):  <R**2>=            488.3442
 Charge=             -0.0000 electrons
 Dipole moment (field-independent basis, Debye):
    X=              3.8365    Y=             -0.8044    Z=              0.8591  Tot=              4.0130
 Quadrupole moment (field-independent basis, Debye-Ang):
   XX=            -32.9925   YY=            -25.6002   ZZ=            -32.6299
   XY=             -1.3559   XZ=              1.4437   YZ=              0.1364
 Traceless Quadrupole moment (field-independent basis, Debye-Ang):
   XX=             -2.5850   YY=              4.8073   ZZ=             -2.2224
   XY=             -1.3559   XZ=              1.4437   YZ=              0.1364
 Octapole moment (field-independent basis, Debye-Ang**2):
  XXX=             10.1055  YYY=            -14.8362  ZZZ=             -1.0167  XYY=              3.4522
  XXY=             -7.8351  XXZ=             -0.7108  XZZ=             -1.0591  YZZ=             -0.3080
  YYZ=             -0.7711  XYZ=             -1.0876
 Hexadecapole moment (field-independent basis, Debye-Ang**3):
 XXXX=           -337.0452 YYYY=           -160.4446 ZZZZ=            -72.5863 XXXY=            -15.9489
 XXXZ=              0.6250 YYYX=            -15.4665 YYYZ=              4.3628 ZZZX=             -1.6399
 ZZZY=             -1.2685 XXYY=            -76.3397 XXZZ=            -71.0629 YYZZ=            -41.0027
 XXYZ=              3.8116 YYXZ=             -1.2577 ZZXY=             -0.1673
 N-N= 1.958740448663D+02 E-N=-1.111085479277D+03  KE= 3.043513201143D+02
                          Isotropic Fermi Contact Couplings
        Atom                 a.u.       MegaHertz       Gauss      10(-4) cm-1
     1  O(17)              0.00333      -2.01564      -0.71923      -0.67234
     2  O(17)              0.00487      -2.95373      -1.05396      -0.98526
     3  O(17)              0.09945     -60.28822     -21.51234     -20.10999
     4  C(13)             -0.01763     -19.81565      -7.07072      -6.60979
     5  C(13)              0.19414     218.24873      77.87657      72.79994
     6  H(1)               0.00672      30.03393      10.71685      10.01824
     7  H(1)               0.01768      79.03440      28.20144      26.36304
     8  H(1)              -0.03539    -158.20543     -56.45163     -52.77165
     9  H(1)              -0.00399     -17.83159      -6.36276      -5.94798
    10  H(1)              -0.00598     -26.72522      -9.53622      -8.91457
    11  H(1)              -0.00037      -1.67340      -0.59711      -0.55819
    12  H(1)              -0.00118      -5.27536      -1.88238      -1.75967
 --------------------------------------------------------
       Center         ----  Spin Dipole Couplings  ----
                      3XX-RR        3YY-RR        3ZZ-RR
 --------------------------------------------------------
     1   Atom        0.001279      0.007821     -0.009100
     2   Atom        0.228550     -0.046602     -0.181948
     3   Atom        1.336188     -0.717272     -0.618916
     4   Atom        0.015073     -0.002881     -0.012193
     5   Atom        0.637539     -0.307210     -0.330330
     6   Atom       -0.004025      0.001276      0.002749
     7   Atom        0.007827     -0.000465     -0.007362
     8   Atom        0.149652     -0.045945     -0.103707
     9   Atom       -0.004766      0.011351     -0.006585
    10   Atom       -0.003841     -0.037771      0.041612
    11   Atom       -0.000498      0.004218     -0.003720
    12   Atom       -0.003006      0.017427     -0.014421
 --------------------------------------------------------
                        XY            XZ            YZ
 --------------------------------------------------------
     1   Atom        0.002664      0.008568      0.012665
     2   Atom        0.267986      0.145883      0.140045
     3   Atom        0.845656      0.949693      0.333342
     4   Atom       -0.014855     -0.007494      0.002189
     5   Atom        0.159854     -0.025632     -0.003074
     6   Atom       -0.001925      0.003966     -0.010531
     7   Atom       -0.004104      0.004845     -0.001737
     8   Atom        0.115626      0.051651      0.034291
     9   Atom        0.012074      0.003516      0.044132
    10   Atom        0.010132     -0.012875     -0.016864
    11   Atom       -0.003080      0.000094      0.001184
    12   Atom       -0.008488     -0.002726      0.004512
 --------------------------------------------------------


 ---------------------------------------------------------------------------------
              Anisotropic Spin Dipole Couplings in Principal Axis System
 ---------------------------------------------------------------------------------

       Atom             a.u.   MegaHertz   Gauss  10(-4) cm-1        Axes

              Baa    -0.0181     1.307     0.466     0.436 -0.3282 -0.3877  0.8614
     1 O(17)  Bbb     0.0007    -0.053    -0.019    -0.018  0.8586 -0.5026  0.1009
              Bcc     0.0173    -1.255    -0.448    -0.418  0.3938  0.7727  0.4978
 
              Baa    -0.2716    19.650     7.012     6.554  0.0918 -0.6028  0.7926
     2 O(17)  Bbb    -0.1823    13.189     4.706     4.399 -0.5870  0.6102  0.5321
              Bcc     0.4538   -32.839   -11.718   -10.954  0.8044  0.5141  0.2978
 
              Baa    -1.0228    74.007    26.408    24.686 -0.4229  0.8604  0.2842
     3 O(17)  Bbb    -1.0003    72.378    25.826    24.143 -0.2168 -0.4006  0.8902
              Bcc     2.0230  -146.386   -52.234   -48.829  0.8799  0.3148  0.3560
 
              Baa    -0.0146    -1.965    -0.701    -0.655  0.3765  0.3132  0.8719
     4 C(13)  Bbb    -0.0104    -1.391    -0.496    -0.464  0.3493  0.8236 -0.4467
              Bcc     0.0250     3.356     1.198     1.119  0.8580 -0.4727 -0.2007
 
              Baa    -0.3340   -44.814   -15.991   -14.948 -0.1608  0.9202 -0.3568
     5 C(13)  Bbb    -0.3306   -44.359   -15.828   -14.797 -0.0341  0.3561  0.9338
              Bcc     0.6645    89.173    31.819    29.745  0.9864  0.1623 -0.0259
 
              Baa    -0.0090    -4.778    -1.705    -1.594 -0.3008  0.6560  0.6922
     6 H(1)   Bbb    -0.0046    -2.469    -0.881    -0.824  0.9246  0.3785  0.0431
              Bcc     0.0136     7.247     2.586     2.417  0.2337 -0.6530  0.7204
 
              Baa    -0.0088    -4.702    -1.678    -1.569 -0.2627  0.0711  0.9623
     7 H(1)   Bbb    -0.0021    -1.145    -0.408    -0.382  0.3673  0.9296  0.0316
              Bcc     0.0110     5.847     2.086     1.950  0.8923 -0.3617  0.2703
 
              Baa    -0.1197   -63.866   -22.789   -21.303  0.0214 -0.4488  0.8934
     8 H(1)   Bbb    -0.0954   -50.893   -18.160   -16.976 -0.4585  0.7896  0.4077
              Bcc     0.2151   114.759    40.949    38.279  0.8884  0.4184  0.1889
 
              Baa    -0.0433   -23.105    -8.244    -7.707  0.1315 -0.6402  0.7569
     9 H(1)   Bbb    -0.0066    -3.509    -1.252    -1.170  0.9692 -0.0773 -0.2338
              Bcc     0.0499    26.613     9.496     8.877  0.2081  0.7643  0.6103
 
              Baa    -0.0427   -22.779    -8.128    -7.598 -0.1980  0.9665  0.1631
    10 H(1)   Bbb    -0.0064    -3.438    -1.227    -1.147  0.9425  0.1421  0.3024
              Bcc     0.0491    26.217     9.355     8.745 -0.2691 -0.2136  0.9391
 
              Baa    -0.0040    -2.141    -0.764    -0.714 -0.2166 -0.2180  0.9516
    11 H(1)   Bbb    -0.0018    -0.980    -0.350    -0.327  0.8751  0.3888  0.2882
              Bcc     0.0058     3.120     1.113     1.041 -0.4329  0.8951  0.1066
 
              Baa    -0.0153    -8.154    -2.910    -2.720  0.1518 -0.0963  0.9837
    12 H(1)   Bbb    -0.0060    -3.180    -1.135    -1.061  0.9276  0.3575 -0.1082
              Bcc     0.0212    11.335     4.044     3.781 -0.3413  0.9289  0.1436
 

 ---------------------------------------------------------------------------------

 No NMR shielding tensors so no spin-rotation constants.
 Leave Link  601 at Thu May 30 06:38:15 2019, MaxMem=   671088640 cpu:              11.3 elap:               0.6
 (Enter /shared/centos7/gaussian/g16/l9999.exe)
 1\1\GINC-C0198\FOpt\UM062X\CC-pVTZ\C2H7O3(2)\HARMS.N\30-May-2019\0\\#p
  m062x/cc-pVTZ Opt=(ModRedun,Loose,maxcycles=900) Int(Grid=SG1) scf=(m
 axcycle=900)\\Gaussian input prepared by ASE\\0,2\O,-5.996751622,0.776
 9247864,8.3513533254\O,-3.4398690064,-0.2897580263,8.5171942217\O,-3.3
 196712626,0.5972574405,9.5725789831\C,-5.2942117869,1.8211657542,7.681
 6726892\C,-4.4281919101,2.5415546747,8.6619247682\H,-4.6850157372,1.41
 07294489,6.869828106\H,-6.0094153637,2.5273815853,7.2399689422\H,-3.49
 07345148,1.6487706421,9.1061351271\H,-3.841637778,3.3438545719,8.22207
 59208\H,-4.9269248455,2.8172210693,9.5858672\H,-6.7137402679,0.4775369
 097,7.7879015558\H,-4.3934115417,-0.4704914395,8.523287493\\Version=EM
 64L-G16RevA.03\State=2-A\HF=-305.897034\S2=0.760175\S2-1=0.\S2A=0.7500
 5\RMSD=5.573e-09\RMSF=2.892e-03\Dipole=-1.1325848,0.5927091,-0.9266398
 \Quadrupole=-0.463051,0.9415058,-0.4784548,2.8764862,1.5133633,0.74043
 68\PG=C01 [X(C2H7O3)]\\@


 A MUSTACHE HAIR ACROSS A CHIP IS LIKE A REDWOOD
 TREE FALLING THROUGH A HOUSING PROJECT.
 - AN IBM MANAGER IN EAST FISHKILL, NEW YORK
   AS QUOTED IN "FROM SANDS TO CIRCUITS", IBM INNOVATION JANUARY 1985.
 Job cpu time:       0 days  2 hours 43 minutes 21.8 seconds.
 Elapsed time:       0 days  0 hours  8 minutes 15.5 seconds.
 File lengths (MBytes):  RWF=    288 Int=      0 D2E=      0 Chk=     32 Scr=     32
 Normal termination of Gaussian 16 at Thu May 30 06:38:15 2019.
