 Entering Gaussian System, Link 0=g16
 Initial command:
 /shared/centos7/gaussian/g16/l1.exe "/scratch/harms.n/gauss_scrdir/Gau-4920.inp" -scrdir="/scratch/harms.n/gauss_scrdir/"
 Entering Link 1 = /shared/centos7/gaussian/g16/l1.exe PID=      4921.
  
 Copyright (c) 1988,1990,1992,1993,1995,1998,2003,2009,2016,
            Gaussian, Inc.  All Rights Reserved.
  
 This is part of the Gaussian(R) 16 program.  It is based on
 the Gaussian(R) 09 system (copyright 2009, Gaussian, Inc.),
 the Gaussian(R) 03 system (copyright 2003, Gaussian, Inc.),
 the Gaussian(R) 98 system (copyright 1998, Gaussian, Inc.),
 the Gaussian(R) 94 system (copyright 1995, Gaussian, Inc.),
 the Gaussian 92(TM) system (copyright 1992, Gaussian, Inc.),
 the Gaussian 90(TM) system (copyright 1990, Gaussian, Inc.),
 the Gaussian 88(TM) system (copyright 1988, Gaussian, Inc.),
 the Gaussian 86(TM) system (copyright 1986, Carnegie Mellon
 University), and the Gaussian 82(TM) system (copyright 1983,
 Carnegie Mellon University). Gaussian is a federally registered
 trademark of Gaussian, Inc.
  
 This software contains proprietary and confidential information,
 including trade secrets, belonging to Gaussian, Inc.
  
 This software is provided under written license and may be
 used, copied, transmitted, or stored only in accord with that
 written license.
  
 The following legend is applicable only to US Government
 contracts under FAR:
  
                    RESTRICTED RIGHTS LEGEND
  
 Use, reproduction and disclosure by the US Government is
 subject to restrictions as set forth in subparagraphs (a)
 and (c) of the Commercial Computer Software - Restricted
 Rights clause in FAR 52.227-19.
  
 Gaussian, Inc.
 340 Quinnipiac St., Bldg. 40, Wallingford CT 06492
  
  
 ---------------------------------------------------------------
 Warning -- This program may not be used in any manner that
 competes with the business of Gaussian, Inc. or will provide
 assistance to any competitor of Gaussian, Inc.  The licensee
 of this program is prohibited from giving any competitor of
 Gaussian, Inc. access to this program.  By using this program,
 the user acknowledges that Gaussian, Inc. is engaged in the
 business of creating and licensing software in the field of
 computational chemistry and represents and warrants to the
 licensee that it is not a competitor of Gaussian, Inc. and that
 it will not use this program in any manner prohibited above.
 ---------------------------------------------------------------
  

 Cite this work as:
 Gaussian 16, Revision A.03,
 M. J. Frisch, G. W. Trucks, H. B. Schlegel, G. E. Scuseria, 
 M. A. Robb, J. R. Cheeseman, G. Scalmani, V. Barone, 
 G. A. Petersson, H. Nakatsuji, X. Li, M. Caricato, A. V. Marenich, 
 J. Bloino, B. G. Janesko, R. Gomperts, B. Mennucci, H. P. Hratchian, 
 J. V. Ortiz, A. F. Izmaylov, J. L. Sonnenberg, D. Williams-Young, 
 F. Ding, F. Lipparini, F. Egidi, J. Goings, B. Peng, A. Petrone, 
 T. Henderson, D. Ranasinghe, V. G. Zakrzewski, J. Gao, N. Rega, 
 G. Zheng, W. Liang, M. Hada, M. Ehara, K. Toyota, R. Fukuda, 
 J. Hasegawa, M. Ishida, T. Nakajima, Y. Honda, O. Kitao, H. Nakai, 
 T. Vreven, K. Throssell, J. A. Montgomery, Jr., J. E. Peralta, 
 F. Ogliaro, M. J. Bearpark, J. J. Heyd, E. N. Brothers, K. N. Kudin, 
 V. N. Staroverov, T. A. Keith, R. Kobayashi, J. Normand, 
 K. Raghavachari, A. P. Rendell, J. C. Burant, S. S. Iyengar, 
 J. Tomasi, M. Cossi, J. M. Millam, M. Klene, C. Adamo, R. Cammi, 
 J. W. Ochterski, R. L. Martin, K. Morokuma, O. Farkas, 
 J. B. Foresman, and D. J. Fox, Gaussian, Inc., Wallingford CT, 2016.
 
 ******************************************
 Gaussian 16:  EM64L-G16RevA.03 25-Dec-2016
                30-May-2019 
 ******************************************
 %nprocshared=20
 Will use up to   20 processors via shared memory.
 %mem=5GB
 ----------------------------------------------------------------------
 #p m062x/cc-pVTZ Opt=(ModRedun,Loose,maxcycles=900) Int(Grid=SG1) scf=
 (maxcycle=900)
 ----------------------------------------------------------------------
 1/6=900,7=-1,18=120,19=15,26=2,38=1/1,3;
 2/9=110,12=2,17=6,18=5,40=1/2;
 3/5=16,6=1,11=2,25=1,30=1,71=1,74=-55,75=1/1,2,3;
 4//1;
 5/5=2,7=900,38=5/2;
 6/7=2,8=2,9=2,10=2,28=1/1;
 7//1,2,3,16;
 1/6=900,7=-1,18=20,19=15,26=2/3(2);
 2/9=110/2;
 99//99;
 2/9=110/2;
 3/5=16,6=1,11=2,25=1,30=1,71=1,74=-55,75=1/1,2,3;
 4/5=5,16=3,69=1/1;
 5/5=2,7=900,38=5/2;
 7//1,2,3,16;
 1/6=900,7=-1,18=20,19=15,26=2/3(-5);
 2/9=110/2;
 6/7=2,8=2,9=2,10=2,19=2,28=1/1;
 99/9=1/99;
 Leave Link    1 at Thu May 30 06:29:36 2019, MaxMem=   671088640 cpu:              32.3 elap:               1.7
 (Enter /shared/centos7/gaussian/g16/l101.exe)
 ------------------------------
 Gaussian input prepared by ASE
 ------------------------------
 Symbolic Z-matrix:
 Charge =  0 Multiplicity = 2
 O                    -6.11845   1.06247   6.68787 
 O                    -7.7516    4.66037   4.97584 
 O                    -8.31731   4.51811   6.1555 
 C                    -5.79972   2.34508   7.15344 
 C                    -6.99513   3.14991   7.64489 
 H                    -5.06176   2.27012   7.98365 
 H                    -5.28669   2.87123   6.32092 
 H                    -7.78697   3.59339   6.62043 
 H                    -7.67765   2.5573    8.28986 
 H                    -6.68905   4.07347   8.18056 
 H                    -6.6376    0.62061   7.40967 
 H                    -7.07371   5.36734   5.1214 
 
 Add virtual bond connecting atoms H8         and O3         Dist= 2.20D+00.
 Add virtual bond connecting atoms H8         and C5         Dist= 2.59D+00.
 The following ModRedundant input section has been read:
 B       5       8 F                                                           
 B       3       8 F                                                           
 A       3       8       5 F                                                   
 
 ITRead=  0  0  0  0  0  0  0  0  0  0  0  0
 MicOpt= -1 -1 -1 -1 -1 -1 -1 -1 -1 -1 -1 -1
 NAtoms=     12 NQM=       12 NQMF=       0 NMMI=      0 NMMIF=      0
                NMic=       0 NMicF=      0.
                    Isotopes and Nuclear Properties:
 (Nuclear quadrupole moments (NQMom) in fm**2, nuclear magnetic moments (NMagM)
  in nuclear magnetons)

  Atom         1           2           3           4           5           6           7           8           9          10
 IAtWgt=          16          16          16          12          12           1           1           1           1           1
 AtmWgt=  15.9949146  15.9949146  15.9949146  12.0000000  12.0000000   1.0078250   1.0078250   1.0078250   1.0078250   1.0078250
 NucSpn=           0           0           0           0           0           1           1           1           1           1
 AtZEff=  -0.0000000  -0.0000000  -0.0000000  -0.0000000  -0.0000000  -0.0000000  -0.0000000  -0.0000000  -0.0000000  -0.0000000
 NQMom=    0.0000000   0.0000000   0.0000000   0.0000000   0.0000000   0.0000000   0.0000000   0.0000000   0.0000000   0.0000000
 NMagM=    0.0000000   0.0000000   0.0000000   0.0000000   0.0000000   2.7928460   2.7928460   2.7928460   2.7928460   2.7928460
 AtZNuc=   8.0000000   8.0000000   8.0000000   6.0000000   6.0000000   1.0000000   1.0000000   1.0000000   1.0000000   1.0000000

  Atom        11          12
 IAtWgt=           1           1
 AtmWgt=   1.0078250   1.0078250
 NucSpn=           1           1
 AtZEff=  -0.0000000  -0.0000000
 NQMom=    0.0000000   0.0000000
 NMagM=    2.7928460   2.7928460
 AtZNuc=   1.0000000   1.0000000
 Leave Link  101 at Thu May 30 06:29:37 2019, MaxMem=   671088640 cpu:               5.5 elap:               0.3
 (Enter /shared/centos7/gaussian/g16/l103.exe)

 GradGradGradGradGradGradGradGradGradGradGradGradGradGradGradGradGradGrad
 Berny optimization.
 Initialization pass.
                           ----------------------------
                           !    Initial Parameters    !
                           ! (Angstroms and Degrees)  !
 --------------------------                            --------------------------
 ! Name  Definition              Value          Derivative Info.                !
 --------------------------------------------------------------------------------
 ! R1    R(1,4)                  1.4012         estimate D2E/DX2                !
 ! R2    R(1,11)                 0.9929         estimate D2E/DX2                !
 ! R3    R(2,3)                  1.316          estimate D2E/DX2                !
 ! R4    R(2,12)                 0.9902         estimate D2E/DX2                !
 ! R5    R(3,8)                  1.163          Frozen                          !
 ! R6    R(4,5)                  1.5226         estimate D2E/DX2                !
 ! R7    R(4,6)                  1.1133         estimate D2E/DX2                !
 ! R8    R(4,7)                  1.1105         estimate D2E/DX2                !
 ! R9    R(5,8)                  1.3687         Frozen                          !
 ! R10   R(5,9)                  1.1104         estimate D2E/DX2                !
 ! R11   R(5,10)                 1.1107         estimate D2E/DX2                !
 ! A1    A(4,1,11)             106.5441         estimate D2E/DX2                !
 ! A2    A(3,2,12)             103.8683         estimate D2E/DX2                !
 ! A3    A(2,3,8)              104.3762         estimate D2E/DX2                !
 ! A4    A(1,4,5)              114.362          estimate D2E/DX2                !
 ! A5    A(1,4,6)              109.6888         estimate D2E/DX2                !
 ! A6    A(1,4,7)              106.8396         estimate D2E/DX2                !
 ! A7    A(5,4,6)              108.3797         estimate D2E/DX2                !
 ! A8    A(5,4,7)              110.7478         estimate D2E/DX2                !
 ! A9    A(6,4,7)              106.5433         estimate D2E/DX2                !
 ! A10   A(4,5,8)              112.5761         estimate D2E/DX2                !
 ! A11   A(4,5,9)              112.8274         estimate D2E/DX2                !
 ! A12   A(4,5,10)             112.2623         estimate D2E/DX2                !
 ! A13   A(8,5,9)              104.6011         estimate D2E/DX2                !
 ! A14   A(8,5,10)             104.5369         estimate D2E/DX2                !
 ! A15   A(9,5,10)             109.4527         estimate D2E/DX2                !
 ! A16   A(3,8,5)              145.1562         Frozen                          !
 ! D1    D(11,1,4,5)           -52.8461         estimate D2E/DX2                !
 ! D2    D(11,1,4,6)            69.1363         estimate D2E/DX2                !
 ! D3    D(11,1,4,7)          -175.7588         estimate D2E/DX2                !
 ! D4    D(12,2,3,8)           -98.3901         estimate D2E/DX2                !
 ! D5    D(2,3,8,5)            117.2633         estimate D2E/DX2                !
 ! D6    D(1,4,5,8)            -73.2748         estimate D2E/DX2                !
 ! D7    D(1,4,5,9)             44.8385         estimate D2E/DX2                !
 ! D8    D(1,4,5,10)           169.0842         estimate D2E/DX2                !
 ! D9    D(6,4,5,8)            164.0294         estimate D2E/DX2                !
 ! D10   D(6,4,5,9)            -77.8572         estimate D2E/DX2                !
 ! D11   D(6,4,5,10)            46.3885         estimate D2E/DX2                !
 ! D12   D(7,4,5,8)             47.4958         estimate D2E/DX2                !
 ! D13   D(7,4,5,9)            165.6091         estimate D2E/DX2                !
 ! D14   D(7,4,5,10)           -70.1451         estimate D2E/DX2                !
 ! D15   D(4,5,8,3)           -129.3084         estimate D2E/DX2                !
 ! D16   D(9,5,8,3)            107.8387         estimate D2E/DX2                !
 ! D17   D(10,5,8,3)            -7.1901         estimate D2E/DX2                !
 --------------------------------------------------------------------------------
 Trust Radius=3.00D-01 FncErr=1.00D-05 GrdErr=1.00D-04 EigMax=2.50D+02 EigMin=1.00D-04
 Number of steps in this run=    100 maximum allowed number of steps=    100.
 GradGradGradGradGradGradGradGradGradGradGradGradGradGradGradGradGradGrad

 Leave Link  103 at Thu May 30 06:29:37 2019, MaxMem=   671088640 cpu:               1.1 elap:               0.1
 (Enter /shared/centos7/gaussian/g16/l202.exe)
                          Input orientation:                          
 ---------------------------------------------------------------------
 Center     Atomic      Atomic             Coordinates (Angstroms)
 Number     Number       Type             X           Y           Z
 ---------------------------------------------------------------------
      1          8           0       -6.118451    1.062466    6.687867
      2          8           0       -7.751605    4.660369    4.975835
      3          8           0       -8.317308    4.518108    6.155500
      4          6           0       -5.799717    2.345082    7.153438
      5          6           0       -6.995131    3.149910    7.644890
      6          1           0       -5.061763    2.270116    7.983645
      7          1           0       -5.286692    2.871228    6.320921
      8          1           0       -7.786973    3.593392    6.620429
      9          1           0       -7.677646    2.557304    8.289861
     10          1           0       -6.689049    4.073473    8.180560
     11          1           0       -6.637602    0.620609    7.409670
     12          1           0       -7.073709    5.367342    5.121396
 ---------------------------------------------------------------------
                    Distance matrix (angstroms):
                    1          2          3          4          5
     1  O    0.000000
     2  O    4.306176   0.000000
     3  O    4.130356   1.316005   0.000000
     4  C    1.401232   3.729930   3.472201   0.000000
     5  C    2.458024   3.158734   2.416278   1.522592   0.000000
     6  H    2.062534   4.689934   4.358228   1.113301   2.150977
     7  H    2.024374   3.329576   3.453144   1.110454   2.179293
     8  H    3.032177   1.960709   1.162976   2.406567   1.368654
     9  H    2.689240   3.925700   2.968065   2.205246   1.110403
    10  H    3.408793   3.426913   2.636246   2.198459   1.110674
    11  H    0.992852   4.846052   4.425477   1.934299   2.565252
    12  H    4.679563   0.990223   1.826776   3.858277   3.360239
                    6          7          8          9         10
     6  H    0.000000
     7  H    1.782296   0.000000
     8  H    3.322076   2.619662   0.000000
     9  H    2.649356   3.113187   1.967850   0.000000
    10  H    2.436992   2.621117   1.967212   1.813295   0.000000
    11  H    2.352358   2.841763   3.283503   2.367956   3.538246
    12  H    4.672601   3.295887   2.429557   4.277876   3.343732
                   11         12
    11  H    0.000000
    12  H    5.287519   0.000000
 Stoichiometry    C2H7O3(2)
 Framework group  C1[X(C2H7O3)]
 Deg. of freedom    30
 Full point group                 C1      NOp   1
 Largest Abelian subgroup         C1      NOp   1
 Largest concise Abelian subgroup C1      NOp   1
                         Standard orientation:                         
 ---------------------------------------------------------------------
 Center     Atomic      Atomic             Coordinates (Angstroms)
 Number     Number       Type             X           Y           Z
 ---------------------------------------------------------------------
      1          8           0       -2.114126   -0.746736   -0.431626
      2          8           0        2.158408   -0.767428    0.105196
      3          8           0        1.849024    0.415489   -0.381486
      4          6           0       -1.464254   -0.008521    0.566450
      5          6           0       -0.455724    1.004563    0.042223
      6          1           0       -2.216994    0.532350    1.183119
      7          1           0       -0.971829   -0.741600    1.239667
      8          1           0        0.686906    0.414422   -0.426119
      9          1           0       -0.841310    1.590388   -0.818664
     10          1           0       -0.105911    1.699073    0.835244
     11          1           0       -2.493691   -0.087123   -1.069274
     12          1           0        2.316253   -0.594355    1.067314
 ---------------------------------------------------------------------
 Rotational constants (GHZ):           9.0207780           1.9167217           1.7577483
 Leave Link  202 at Thu May 30 06:29:37 2019, MaxMem=   671088640 cpu:               0.2 elap:               0.0
 (Enter /shared/centos7/gaussian/g16/l301.exe)
 Standard basis: CC-pVTZ (5D, 7F)
 Ernie: Thresh=  0.10000D-02 Tol=  0.10000D-05 Strict=F.
 Ernie:  15 primitive shells out of 186 were deleted.
 There are   280 symmetry adapted cartesian basis functions of A   symmetry.
 There are   248 symmetry adapted basis functions of A   symmetry.
   248 basis functions,   379 primitive gaussians,   280 cartesian basis functions
    22 alpha electrons       21 beta electrons
       nuclear repulsion energy       182.5433103976 Hartrees.
 IExCor= 4336 DFT=T Ex+Corr=M062X ExCW=0 ScaHFX=  0.540000
 ScaDFX=  1.000000  1.000000  1.000000  1.000000 ScalE2=  1.000000  1.000000
 IRadAn=      1 IRanWt=     -1 IRanGd=            0 ICorTp=0 IEmpDi=  4
 NAtoms=   12 NActive=   12 NUniq=   12 SFac= 1.00D+00 NAtFMM=   60 NAOKFM=F Big=F
 Integral buffers will be    131072 words long.
 Raffenetti 2 integral format.
 Two-electron integral symmetry is turned on.
 Leave Link  301 at Thu May 30 06:29:37 2019, MaxMem=   671088640 cpu:               1.0 elap:               0.1
 (Enter /shared/centos7/gaussian/g16/l302.exe)
 NPDir=0 NMtPBC=     1 NCelOv=     1 NCel=       1 NClECP=     1 NCelD=      1
         NCelK=      1 NCelE2=     1 NClLst=     1 CellRange=     0.0.
 One-electron integrals computed using PRISM.
 One-electron integral symmetry used in STVInt
 NBasis=   248 RedAO= T EigKep=  1.03D-03  NBF=   248
 NBsUse=   248 1.00D-06 EigRej= -1.00D+00 NBFU=   248
 Precomputing XC quadrature grid using
 IXCGrd= 4 IRadAn=           1 IRanWt=          -1 IRanGd=           0 AccXCQ= 0.00D+00.
 Generated NRdTot=       0 NPtTot=           0 NUsed=           0 NTot=          32
 NSgBfM=   280   280   280   280   280 MxSgAt=    12 MxSgA2=    12.
 Leave Link  302 at Thu May 30 06:29:37 2019, MaxMem=   671088640 cpu:               6.2 elap:               0.3
 (Enter /shared/centos7/gaussian/g16/l303.exe)
 DipDrv:  MaxL=1.
 Leave Link  303 at Thu May 30 06:29:37 2019, MaxMem=   671088640 cpu:               0.5 elap:               0.0
 (Enter /shared/centos7/gaussian/g16/l401.exe)
 ExpMin= 1.03D-01 ExpMax= 1.53D+04 ExpMxC= 5.22D+02 IAcc=1 IRadAn=         1 AccDes= 0.00D+00
 Harris functional with IExCor= 1009 and IRadAn=       1 diagonalized for initial guess.
 HarFok:  IExCor= 1009 AccDes= 0.00D+00 IRadAn=         1 IDoV= 1 UseB2=F ITyADJ=14
 ICtDFT=  3500011 ScaDFX=  1.000000  1.000000  1.000000  1.000000
 FoFCou: FMM=F IPFlag=           0 FMFlag=      100000 FMFlg1=           0
         NFxFlg=           0 DoJE=T BraDBF=F KetDBF=T FulRan=T
         wScrn=  0.000000 ICntrl=       500 IOpCl=  0 I1Cent=   200000004 NGrid=           0
         NMat0=    1 NMatS0=      1 NMatT0=    0 NMatD0=    1 NMtDS0=    0 NMtDT0=    0
 Petite list used in FoFCou.
 Harris En= -305.765530475131    
 JPrj=0 DoOrth=F DoCkMO=F.
 Initial guess <Sx>= 0.0000 <Sy>= 0.0000 <Sz>= 0.5000 <S**2>= 0.7500 S= 0.5000
 Leave Link  401 at Thu May 30 06:29:38 2019, MaxMem=   671088640 cpu:               9.2 elap:               0.5
 (Enter /shared/centos7/gaussian/g16/l502.exe)
 Integral symmetry usage will be decided dynamically.
 UHF open shell SCF:
 Using DIIS extrapolation, IDIIS=  1040.
 NGot=   671088640 LenX=   670923676 LenY=   670844835
 Requested convergence on RMS density matrix=1.00D-08 within 900 cycles.
 Requested convergence on MAX density matrix=1.00D-06.
 Requested convergence on             energy=1.00D-06.
 No special actions if energy rises.
 Fock matrices will be formed incrementally for  20 cycles.

 Cycle   1  Pass 1  IDiag  1:
 FoFJK:  IHMeth= 1 ICntrl=       0 DoSepK=F KAlg= 0 I1Cent=           0 FoldK=F
 IRaf= 960000000 NMat=       1 IRICut=       1 DoRegI=T DoRafI=F ISym2E= 0 IDoP0=0 IntGTp=1.
 FoFCou: FMM=F IPFlag=           0 FMFlag=      100000 FMFlg1=           0
         NFxFlg=           0 DoJE=F BraDBF=F KetDBF=F FulRan=T
         wScrn=  0.000000 ICntrl=         0 IOpCl=  1 I1Cent=           0 NGrid=           0
         NMat0=    1 NMatS0=      1 NMatT0=    0 NMatD0=    1 NMtDS0=    0 NMtDT0=    0
 Symmetry not used in FoFCou.
 E= -305.725387674714    
 DIIS: error= 2.14D-02 at cycle   1 NSaved=   1.
 NSaved= 1 IEnMin= 1 EnMin= -305.725387674714     IErMin= 1 ErrMin= 2.14D-02
 ErrMax= 2.14D-02  0.00D+00 EMaxC= 1.00D-01 BMatC= 8.17D-01 BMatP= 8.17D-01
 IDIUse=3 WtCom= 7.86D-01 WtEn= 2.14D-01
 Coeff-Com:  0.100D+01
 Coeff-En:   0.100D+01
 Coeff:      0.100D+01
 Gap=     0.334 Goal=   None    Shift=    0.000
 Gap=     0.325 Goal=   None    Shift=    0.000
 GapD=    0.325 DampG=1.000 DampE=0.500 DampFc=0.5000 IDamp=-1.
 Damping current iteration by 5.00D-01
 RMSDP=2.33D-03 MaxDP=1.38D-01              OVMax= 2.58D-01

 Cycle   2  Pass 1  IDiag  1:
 RMSU=  1.16D-03    CP:  1.00D+00
 E= -305.801185050838     Delta-E=       -0.075797376124 Rises=F Damp=T
 DIIS: error= 7.73D-03 at cycle   2 NSaved=   2.
 NSaved= 2 IEnMin= 2 EnMin= -305.801185050838     IErMin= 2 ErrMin= 7.73D-03
 ErrMax= 7.73D-03  0.00D+00 EMaxC= 1.00D-01 BMatC= 7.82D-02 BMatP= 8.17D-01
 IDIUse=3 WtCom= 9.23D-01 WtEn= 7.73D-02
 Coeff-Com: -0.905D-01 0.109D+01
 Coeff-En:   0.000D+00 0.100D+01
 Coeff:     -0.835D-01 0.108D+01
 Gap=     0.343 Goal=   None    Shift=    0.000
 Gap=     0.284 Goal=   None    Shift=    0.000
 RMSDP=5.28D-04 MaxDP=1.94D-02 DE=-7.58D-02 OVMax= 1.06D-01

 Cycle   3  Pass 1  IDiag  1:
 RMSU=  5.12D-04    CP:  1.01D+00  9.00D-01
 E= -305.875835651650     Delta-E=       -0.074650600812 Rises=F Damp=F
 DIIS: error= 2.82D-03 at cycle   3 NSaved=   3.
 NSaved= 3 IEnMin= 3 EnMin= -305.875835651650     IErMin= 3 ErrMin= 2.82D-03
 ErrMax= 2.82D-03  0.00D+00 EMaxC= 1.00D-01 BMatC= 1.84D-02 BMatP= 7.82D-02
 IDIUse=3 WtCom= 9.72D-01 WtEn= 2.82D-02
 Coeff-Com: -0.869D-01 0.339D+00 0.748D+00
 Coeff-En:   0.000D+00 0.000D+00 0.100D+01
 Coeff:     -0.844D-01 0.330D+00 0.755D+00
 Gap=     0.338 Goal=   None    Shift=    0.000
 Gap=     0.256 Goal=   None    Shift=    0.000
 RMSDP=2.19D-04 MaxDP=7.81D-03 DE=-7.47D-02 OVMax= 3.43D-02

 Cycle   4  Pass 1  IDiag  1:
 RMSU=  1.86D-04    CP:  1.01D+00  9.72D-01  8.46D-01
 E= -305.879124956510     Delta-E=       -0.003289304859 Rises=F Damp=F
 DIIS: error= 1.30D-03 at cycle   4 NSaved=   4.
 NSaved= 4 IEnMin= 4 EnMin= -305.879124956510     IErMin= 4 ErrMin= 1.30D-03
 ErrMax= 1.30D-03  0.00D+00 EMaxC= 1.00D-01 BMatC= 4.19D-03 BMatP= 1.84D-02
 IDIUse=3 WtCom= 9.87D-01 WtEn= 1.30D-02
 Coeff-Com: -0.276D-01 0.610D-01 0.352D+00 0.614D+00
 Coeff-En:   0.000D+00 0.000D+00 0.000D+00 0.100D+01
 Coeff:     -0.273D-01 0.602D-01 0.348D+00 0.619D+00
 Gap=     0.336 Goal=   None    Shift=    0.000
 Gap=     0.260 Goal=   None    Shift=    0.000
 RMSDP=8.35D-05 MaxDP=3.62D-03 DE=-3.29D-03 OVMax= 6.39D-03

 Cycle   5  Pass 1  IDiag  1:
 RMSU=  6.02D-05    CP:  1.01D+00  9.65D-01  9.45D-01  8.58D-01
 E= -305.879961922065     Delta-E=       -0.000836965556 Rises=F Damp=F
 DIIS: error= 5.30D-04 at cycle   5 NSaved=   5.
 NSaved= 5 IEnMin= 5 EnMin= -305.879961922065     IErMin= 5 ErrMin= 5.30D-04
 ErrMax= 5.30D-04  0.00D+00 EMaxC= 1.00D-01 BMatC= 1.97D-04 BMatP= 4.19D-03
 IDIUse=3 WtCom= 9.95D-01 WtEn= 5.30D-03
 Coeff-Com:  0.620D-02-0.253D-01-0.928D-02 0.703D-01 0.958D+00
 Coeff-En:   0.000D+00 0.000D+00 0.000D+00 0.000D+00 0.100D+01
 Coeff:      0.617D-02-0.252D-01-0.924D-02 0.699D-01 0.958D+00
 Gap=     0.338 Goal=   None    Shift=    0.000
 Gap=     0.263 Goal=   None    Shift=    0.000
 RMSDP=4.77D-05 MaxDP=1.99D-03 DE=-8.37D-04 OVMax= 9.50D-03

 Cycle   6  Pass 1  IDiag  1:
 RMSU=  2.44D-05    CP:  1.00D+00  9.58D-01  9.73D-01  1.03D+00  1.34D+00
 E= -305.880112369822     Delta-E=       -0.000150447757 Rises=F Damp=F
 DIIS: error= 2.64D-04 at cycle   6 NSaved=   6.
 NSaved= 6 IEnMin= 6 EnMin= -305.880112369822     IErMin= 6 ErrMin= 2.64D-04
 ErrMax= 2.64D-04  0.00D+00 EMaxC= 1.00D-01 BMatC= 7.32D-05 BMatP= 1.97D-04
 IDIUse=3 WtCom= 9.97D-01 WtEn= 2.64D-03
 Coeff-Com:  0.753D-02-0.178D-01-0.783D-01-0.165D+00 0.187D+00 0.107D+01
 Coeff-En:   0.000D+00 0.000D+00 0.000D+00 0.000D+00 0.000D+00 0.100D+01
 Coeff:      0.751D-02-0.178D-01-0.781D-01-0.165D+00 0.186D+00 0.107D+01
 Gap=     0.340 Goal=   None    Shift=    0.000
 Gap=     0.264 Goal=   None    Shift=    0.000
 RMSDP=3.66D-05 MaxDP=1.27D-03 DE=-1.50D-04 OVMax= 5.22D-03

 Cycle   7  Pass 1  IDiag  1:
 RMSU=  1.41D-05    CP:  1.00D+00  9.54D-01  9.94D-01  1.12D+00  1.76D+00
                    CP:  1.32D+00
 E= -305.880165850271     Delta-E=       -0.000053480449 Rises=F Damp=F
 DIIS: error= 1.36D-04 at cycle   7 NSaved=   7.
 NSaved= 7 IEnMin= 7 EnMin= -305.880165850271     IErMin= 7 ErrMin= 1.36D-04
 ErrMax= 1.36D-04  0.00D+00 EMaxC= 1.00D-01 BMatC= 2.24D-05 BMatP= 7.32D-05
 IDIUse=3 WtCom= 9.99D-01 WtEn= 1.36D-03
 Coeff-Com:  0.267D-02-0.408D-02-0.332D-01-0.957D-01-0.625D-01 0.541D+00
 Coeff-Com:  0.652D+00
 Coeff-En:   0.000D+00 0.000D+00 0.000D+00 0.000D+00 0.000D+00 0.000D+00
 Coeff-En:   0.100D+01
 Coeff:      0.267D-02-0.407D-02-0.331D-01-0.956D-01-0.624D-01 0.540D+00
 Coeff:      0.652D+00
 Gap=     0.339 Goal=   None    Shift=    0.000
 Gap=     0.265 Goal=   None    Shift=    0.000
 RMSDP=1.19D-05 MaxDP=4.61D-04 DE=-5.35D-05 OVMax= 2.94D-03

 Cycle   8  Pass 1  IDiag  1:
 RMSU=  5.78D-06    CP:  1.00D+00  9.54D-01  9.98D-01  1.14D+00  1.87D+00
                    CP:  1.58D+00  9.80D-01
 E= -305.880176178979     Delta-E=       -0.000010328708 Rises=F Damp=F
 DIIS: error= 4.86D-05 at cycle   8 NSaved=   8.
 NSaved= 8 IEnMin= 8 EnMin= -305.880176178979     IErMin= 8 ErrMin= 4.86D-05
 ErrMax= 4.86D-05  0.00D+00 EMaxC= 1.00D-01 BMatC= 2.80D-06 BMatP= 2.24D-05
 IDIUse=1 WtCom= 1.00D+00 WtEn= 0.00D+00
 Coeff-Com: -0.178D-02 0.401D-02 0.212D-01 0.380D-01-0.202D-01-0.296D+00
 Coeff-Com: -0.142D-02 0.126D+01
 Coeff:     -0.178D-02 0.401D-02 0.212D-01 0.380D-01-0.202D-01-0.296D+00
 Coeff:     -0.142D-02 0.126D+01
 Gap=     0.340 Goal=   None    Shift=    0.000
 Gap=     0.265 Goal=   None    Shift=    0.000
 RMSDP=9.02D-06 MaxDP=3.73D-04 DE=-1.03D-05 OVMax= 2.03D-03

 Cycle   9  Pass 1  IDiag  1:
 RMSU=  2.78D-06    CP:  1.00D+00  9.54D-01  1.00D+00  1.16D+00  1.94D+00
                    CP:  1.72D+00  1.31D+00  1.65D+00
 E= -305.880179412042     Delta-E=       -0.000003233062 Rises=F Damp=F
 DIIS: error= 2.51D-05 at cycle   9 NSaved=   9.
 NSaved= 9 IEnMin= 9 EnMin= -305.880179412042     IErMin= 9 ErrMin= 2.51D-05
 ErrMax= 2.51D-05  0.00D+00 EMaxC= 1.00D-01 BMatC= 5.30D-07 BMatP= 2.80D-06
 IDIUse=1 WtCom= 1.00D+00 WtEn= 0.00D+00
 Coeff-Com: -0.626D-03 0.116D-02 0.936D-02 0.202D-01 0.805D-02-0.153D+00
 Coeff-Com: -0.679D-01 0.244D+00 0.938D+00
 Coeff:     -0.626D-03 0.116D-02 0.936D-02 0.202D-01 0.805D-02-0.153D+00
 Coeff:     -0.679D-01 0.244D+00 0.938D+00
 Gap=     0.340 Goal=   None    Shift=    0.000
 Gap=     0.265 Goal=   None    Shift=    0.000
 RMSDP=3.78D-06 MaxDP=1.79D-04 DE=-3.23D-06 OVMax= 9.45D-04

 Cycle  10  Pass 1  IDiag  1:
 RMSU=  1.24D-06    CP:  1.00D+00  9.54D-01  1.00D+00  1.16D+00  1.96D+00
                    CP:  1.77D+00  1.43D+00  1.98D+00  1.45D+00
 E= -305.880180098392     Delta-E=       -0.000000686350 Rises=F Damp=F
 DIIS: error= 1.70D-05 at cycle  10 NSaved=  10.
 NSaved=10 IEnMin=10 EnMin= -305.880180098392     IErMin=10 ErrMin= 1.70D-05
 ErrMax= 1.70D-05  0.00D+00 EMaxC= 1.00D-01 BMatC= 2.09D-07 BMatP= 5.30D-07
 IDIUse=1 WtCom= 1.00D+00 WtEn= 0.00D+00
 Coeff-Com:  0.252D-03-0.626D-03-0.168D-02-0.218D-02 0.109D-01 0.178D-01
 Coeff-Com: -0.215D-01-0.285D+00 0.378D+00 0.903D+00
 Coeff:      0.252D-03-0.626D-03-0.168D-02-0.218D-02 0.109D-01 0.178D-01
 Coeff:     -0.215D-01-0.285D+00 0.378D+00 0.903D+00
 Gap=     0.340 Goal=   None    Shift=    0.000
 Gap=     0.265 Goal=   None    Shift=    0.000
 RMSDP=2.47D-06 MaxDP=1.23D-04 DE=-6.86D-07 OVMax= 7.00D-04

 Cycle  11  Pass 1  IDiag  1:
 RMSU=  6.66D-07    CP:  1.00D+00  9.54D-01  1.00D+00  1.16D+00  1.97D+00
                    CP:  1.79D+00  1.50D+00  2.20D+00  1.93D+00  1.42D+00
 E= -305.880180360560     Delta-E=       -0.000000262168 Rises=F Damp=F
 DIIS: error= 8.65D-06 at cycle  11 NSaved=  11.
 NSaved=11 IEnMin=11 EnMin= -305.880180360560     IErMin=11 ErrMin= 8.65D-06
 ErrMax= 8.65D-06  0.00D+00 EMaxC= 1.00D-01 BMatC= 5.66D-08 BMatP= 2.09D-07
 IDIUse=1 WtCom= 1.00D+00 WtEn= 0.00D+00
 Coeff-Com:  0.299D-03-0.647D-03-0.357D-02-0.707D-02 0.139D-02 0.519D-01
 Coeff-Com:  0.113D-01-0.198D+00-0.907D-01 0.371D+00 0.864D+00
 Coeff:      0.299D-03-0.647D-03-0.357D-02-0.707D-02 0.139D-02 0.519D-01
 Coeff:      0.113D-01-0.198D+00-0.907D-01 0.371D+00 0.864D+00
 Gap=     0.340 Goal=   None    Shift=    0.000
 Gap=     0.265 Goal=   None    Shift=    0.000
 RMSDP=1.42D-06 MaxDP=7.24D-05 DE=-2.62D-07 OVMax= 4.34D-04

 Cycle  12  Pass 1  IDiag  1:
 RMSU=  3.73D-07    CP:  1.00D+00  9.54D-01  1.00D+00  1.16D+00  1.98D+00
                    CP:  1.80D+00  1.53D+00  2.31D+00  2.22D+00  1.90D+00
                    CP:  1.37D+00
 E= -305.880180440304     Delta-E=       -0.000000079744 Rises=F Damp=F
 DIIS: error= 4.92D-06 at cycle  12 NSaved=  12.
 NSaved=12 IEnMin=12 EnMin= -305.880180440304     IErMin=12 ErrMin= 4.92D-06
 ErrMax= 4.92D-06  0.00D+00 EMaxC= 1.00D-01 BMatC= 1.87D-08 BMatP= 5.66D-08
 IDIUse=1 WtCom= 1.00D+00 WtEn= 0.00D+00
 Coeff-Com:  0.235D-04-0.266D-04-0.843D-03-0.181D-02-0.267D-02 0.153D-01
 Coeff-Com:  0.872D-02 0.162D-01-0.155D+00-0.169D+00 0.345D+00 0.944D+00
 Coeff:      0.235D-04-0.266D-04-0.843D-03-0.181D-02-0.267D-02 0.153D-01
 Coeff:      0.872D-02 0.162D-01-0.155D+00-0.169D+00 0.345D+00 0.944D+00
 Gap=     0.340 Goal=   None    Shift=    0.000
 Gap=     0.265 Goal=   None    Shift=    0.000
 RMSDP=8.56D-07 MaxDP=4.20D-05 DE=-7.97D-08 OVMax= 2.70D-04

 Cycle  13  Pass 1  IDiag  1:
 RMSU=  1.90D-07    CP:  1.00D+00  9.54D-01  1.00D+00  1.16D+00  1.98D+00
                    CP:  1.81D+00  1.54D+00  2.37D+00  2.38D+00  2.22D+00
                    CP:  1.86D+00  1.45D+00
 E= -305.880180465584     Delta-E=       -0.000000025280 Rises=F Damp=F
 DIIS: error= 1.80D-06 at cycle  13 NSaved=  13.
 NSaved=13 IEnMin=13 EnMin= -305.880180465584     IErMin=13 ErrMin= 1.80D-06
 ErrMax= 1.80D-06  0.00D+00 EMaxC= 1.00D-01 BMatC= 3.55D-09 BMatP= 1.87D-08
 IDIUse=1 WtCom= 1.00D+00 WtEn= 0.00D+00
 Coeff-Com: -0.102D-03 0.223D-03 0.959D-03 0.198D-02-0.132D-02-0.129D-01
 Coeff-Com: -0.316D-02 0.724D-01-0.590D-02-0.157D+00-0.206D+00 0.202D+00
 Coeff-Com:  0.111D+01
 Coeff:     -0.102D-03 0.223D-03 0.959D-03 0.198D-02-0.132D-02-0.129D-01
 Coeff:     -0.316D-02 0.724D-01-0.590D-02-0.157D+00-0.206D+00 0.202D+00
 Coeff:      0.111D+01
 Gap=     0.340 Goal=   None    Shift=    0.000
 Gap=     0.265 Goal=   None    Shift=    0.000
 RMSDP=4.68D-07 MaxDP=2.05D-05 DE=-2.53D-08 OVMax= 1.45D-04

 Cycle  14  Pass 1  IDiag  1:
 RMSU=  8.41D-08    CP:  1.00D+00  9.54D-01  1.00D+00  1.16D+00  1.98D+00
                    CP:  1.81D+00  1.55D+00  2.39D+00  2.46D+00  2.40D+00
                    CP:  2.18D+00  1.94D+00  1.39D+00
 E= -305.880180471111     Delta-E=       -0.000000005527 Rises=F Damp=F
 DIIS: error= 4.86D-07 at cycle  14 NSaved=  14.
 NSaved=14 IEnMin=14 EnMin= -305.880180471111     IErMin=14 ErrMin= 4.86D-07
 ErrMax= 4.86D-07  0.00D+00 EMaxC= 1.00D-01 BMatC= 3.13D-10 BMatP= 3.55D-09
 IDIUse=1 WtCom= 1.00D+00 WtEn= 0.00D+00
 Coeff-Com: -0.369D-05 0.795D-05 0.123D-03 0.300D-03 0.122D-03-0.230D-02
 Coeff-Com: -0.179D-02 0.101D-02 0.181D-01 0.252D-01-0.644D-01-0.126D+00
 Coeff-Com:  0.429D-01 0.111D+01
 Coeff:     -0.369D-05 0.795D-05 0.123D-03 0.300D-03 0.122D-03-0.230D-02
 Coeff:     -0.179D-02 0.101D-02 0.181D-01 0.252D-01-0.644D-01-0.126D+00
 Coeff:      0.429D-01 0.111D+01
 Gap=     0.340 Goal=   None    Shift=    0.000
 Gap=     0.265 Goal=   None    Shift=    0.000
 RMSDP=1.32D-07 MaxDP=5.32D-06 DE=-5.53D-09 OVMax= 3.92D-05

 Cycle  15  Pass 1  IDiag  1:
 RMSU=  2.79D-08    CP:  1.00D+00  9.54D-01  1.00D+00  1.16D+00  1.98D+00
                    CP:  1.81D+00  1.55D+00  2.40D+00  2.47D+00  2.45D+00
                    CP:  2.25D+00  2.10D+00  1.65D+00  1.34D+00
 E= -305.880180471545     Delta-E=       -0.000000000435 Rises=F Damp=F
 DIIS: error= 1.64D-07 at cycle  15 NSaved=  15.
 NSaved=15 IEnMin=15 EnMin= -305.880180471545     IErMin=15 ErrMin= 1.64D-07
 ErrMax= 1.64D-07  0.00D+00 EMaxC= 1.00D-01 BMatC= 3.48D-11 BMatP= 3.13D-10
 IDIUse=1 WtCom= 1.00D+00 WtEn= 0.00D+00
 Coeff-Com:  0.114D-04-0.246D-04-0.110D-03-0.202D-03 0.946D-04 0.158D-02
 Coeff-Com:  0.188D-03-0.793D-02 0.105D-02 0.190D-01 0.228D-01-0.273D-01
 Coeff-Com: -0.131D+00 0.504D-01 0.107D+01
 Coeff:      0.114D-04-0.246D-04-0.110D-03-0.202D-03 0.946D-04 0.158D-02
 Coeff:      0.188D-03-0.793D-02 0.105D-02 0.190D-01 0.228D-01-0.273D-01
 Coeff:     -0.131D+00 0.504D-01 0.107D+01
 Gap=     0.340 Goal=   None    Shift=    0.000
 Gap=     0.265 Goal=   None    Shift=    0.000
 RMSDP=3.08D-08 MaxDP=8.85D-07 DE=-4.35D-10 OVMax= 5.48D-06

 Cycle  16  Pass 1  IDiag  1:
 RMSU=  8.02D-09    CP:  1.00D+00  9.54D-01  1.00D+00  1.16D+00  1.98D+00
                    CP:  1.81D+00  1.55D+00  2.40D+00  2.47D+00  2.46D+00
                    CP:  2.27D+00  2.13D+00  1.70D+00  1.53D+00  1.37D+00
 E= -305.880180471574     Delta-E=       -0.000000000029 Rises=F Damp=F
 DIIS: error= 5.87D-08 at cycle  16 NSaved=  16.
 NSaved=16 IEnMin=16 EnMin= -305.880180471574     IErMin=16 ErrMin= 5.87D-08
 ErrMax= 5.87D-08  0.00D+00 EMaxC= 1.00D-01 BMatC= 3.01D-12 BMatP= 3.48D-11
 IDIUse=1 WtCom= 1.00D+00 WtEn= 0.00D+00
 Coeff-Com: -0.773D-06 0.144D-05-0.622D-05-0.899D-05-0.238D-04 0.161D-03
 Coeff-Com:  0.616D-04 0.231D-03-0.157D-02-0.257D-02 0.479D-02 0.110D-01
 Coeff-Com: -0.208D-02-0.868D-01-0.599D-01 0.114D+01
 Coeff:     -0.773D-06 0.144D-05-0.622D-05-0.899D-05-0.238D-04 0.161D-03
 Coeff:      0.616D-04 0.231D-03-0.157D-02-0.257D-02 0.479D-02 0.110D-01
 Coeff:     -0.208D-02-0.868D-01-0.599D-01 0.114D+01
 Gap=     0.340 Goal=   None    Shift=    0.000
 Gap=     0.265 Goal=   None    Shift=    0.000
 RMSDP=8.91D-09 MaxDP=2.37D-07 DE=-2.89D-11 OVMax= 1.26D-06

 SCF Done:  E(UM062X) =  -305.880180472     A.U. after   16 cycles
            NFock= 16  Conv=0.89D-08     -V/T= 2.0053
 <Sx>= 0.0000 <Sy>= 0.0000 <Sz>= 0.5000 <S**2>= 0.7599 S= 0.5049
 <L.S>= 0.000000000000E+00
 KE= 3.042776120322D+02 PE=-1.084255980331D+03 EE= 2.915548774294D+02
 Annihilation of the first spin contaminant:
 S**2 before annihilation     0.7599,   after     0.7500
 Leave Link  502 at Thu May 30 06:30:07 2019, MaxMem=   671088640 cpu:             571.2 elap:              28.6
 (Enter /shared/centos7/gaussian/g16/l601.exe)
 Copying SCF densities to generalized density rwf, IOpCl= 1 IROHF=0.

 **********************************************************************

            Population analysis using the SCF density.

 **********************************************************************

 Orbital symmetries:
 Alpha Orbitals:
       Occupied  (A) (A) (A) (A) (A) (A) (A) (A) (A) (A) (A) (A)
                 (A) (A) (A) (A) (A) (A) (A) (A) (A) (A)
       Virtual   (A) (A) (A) (A) (A) (A) (A) (A) (A) (A) (A) (A)
                 (A) (A) (A) (A) (A) (A) (A) (A) (A) (A) (A) (A)
                 (A) (A) (A) (A) (A) (A) (A) (A) (A) (A) (A) (A)
                 (A) (A) (A) (A) (A) (A) (A) (A) (A) (A) (A) (A)
                 (A) (A) (A) (A) (A) (A) (A) (A) (A) (A) (A) (A)
                 (A) (A) (A) (A) (A) (A) (A) (A) (A) (A) (A) (A)
                 (A) (A) (A) (A) (A) (A) (A) (A) (A) (A) (A) (A)
                 (A) (A) (A) (A) (A) (A) (A) (A) (A) (A) (A) (A)
                 (A) (A) (A) (A) (A) (A) (A) (A) (A) (A) (A) (A)
                 (A) (A) (A) (A) (A) (A) (A) (A) (A) (A) (A) (A)
                 (A) (A) (A) (A) (A) (A) (A) (A) (A) (A) (A) (A)
                 (A) (A) (A) (A) (A) (A) (A) (A) (A) (A) (A) (A)
                 (A) (A) (A) (A) (A) (A) (A) (A) (A) (A) (A) (A)
                 (A) (A) (A) (A) (A) (A) (A) (A) (A) (A) (A) (A)
                 (A) (A) (A) (A) (A) (A) (A) (A) (A) (A) (A) (A)
                 (A) (A) (A) (A) (A) (A) (A) (A) (A) (A) (A) (A)
                 (A) (A) (A) (A) (A) (A) (A) (A) (A) (A) (A) (A)
                 (A) (A) (A) (A) (A) (A) (A) (A) (A) (A) (A) (A)
                 (A) (A) (A) (A) (A) (A) (A) (A) (A) (A)
 Beta  Orbitals:
       Occupied  (A) (A) (A) (A) (A) (A) (A) (A) (A) (A) (A) (A)
                 (A) (A) (A) (A) (A) (A) (A) (A) (A)
       Virtual   (A) (A) (A) (A) (A) (A) (A) (A) (A) (A) (A) (A)
                 (A) (A) (A) (A) (A) (A) (A) (A) (A) (A) (A) (A)
                 (A) (A) (A) (A) (A) (A) (A) (A) (A) (A) (A) (A)
                 (A) (A) (A) (A) (A) (A) (A) (A) (A) (A) (A) (A)
                 (A) (A) (A) (A) (A) (A) (A) (A) (A) (A) (A) (A)
                 (A) (A) (A) (A) (A) (A) (A) (A) (A) (A) (A) (A)
                 (A) (A) (A) (A) (A) (A) (A) (A) (A) (A) (A) (A)
                 (A) (A) (A) (A) (A) (A) (A) (A) (A) (A) (A) (A)
                 (A) (A) (A) (A) (A) (A) (A) (A) (A) (A) (A) (A)
                 (A) (A) (A) (A) (A) (A) (A) (A) (A) (A) (A) (A)
                 (A) (A) (A) (A) (A) (A) (A) (A) (A) (A) (A) (A)
                 (A) (A) (A) (A) (A) (A) (A) (A) (A) (A) (A) (A)
                 (A) (A) (A) (A) (A) (A) (A) (A) (A) (A) (A) (A)
                 (A) (A) (A) (A) (A) (A) (A) (A) (A) (A) (A) (A)
                 (A) (A) (A) (A) (A) (A) (A) (A) (A) (A) (A) (A)
                 (A) (A) (A) (A) (A) (A) (A) (A) (A) (A) (A) (A)
                 (A) (A) (A) (A) (A) (A) (A) (A) (A) (A) (A) (A)
                 (A) (A) (A) (A) (A) (A) (A) (A) (A) (A) (A) (A)
                 (A) (A) (A) (A) (A) (A) (A) (A) (A) (A) (A)
 The electronic state is 2-A.
 Alpha  occ. eigenvalues --  -19.70230 -19.69129 -19.62819 -10.59943 -10.55967
 Alpha  occ. eigenvalues --   -1.31949  -1.15037  -0.98481  -0.84906  -0.71983
 Alpha  occ. eigenvalues --   -0.64812  -0.60901  -0.57184  -0.55138  -0.53441
 Alpha  occ. eigenvalues --   -0.52145  -0.45462  -0.42113  -0.40264  -0.37469
 Alpha  occ. eigenvalues --   -0.36375  -0.29448
 Alpha virt. eigenvalues --    0.04511   0.06303   0.10367   0.10818   0.13874
 Alpha virt. eigenvalues --    0.14403   0.17936   0.20088   0.21222   0.24618
 Alpha virt. eigenvalues --    0.28976   0.30824   0.36135   0.38506   0.38792
 Alpha virt. eigenvalues --    0.41498   0.42765   0.45280   0.45901   0.47423
 Alpha virt. eigenvalues --    0.48161   0.49164   0.50505   0.54929   0.56047
 Alpha virt. eigenvalues --    0.56624   0.57831   0.60132   0.63596   0.67799
 Alpha virt. eigenvalues --    0.69677   0.69990   0.70774   0.73328   0.74179
 Alpha virt. eigenvalues --    0.77180   0.78487   0.82253   0.86247   0.88000
 Alpha virt. eigenvalues --    0.89921   0.92816   0.98643   0.99416   1.02659
 Alpha virt. eigenvalues --    1.07696   1.08962   1.11538   1.12771   1.14232
 Alpha virt. eigenvalues --    1.15435   1.16461   1.20024   1.22371   1.24383
 Alpha virt. eigenvalues --    1.27020   1.29340   1.31207   1.34241   1.35522
 Alpha virt. eigenvalues --    1.35683   1.39639   1.43577   1.45541   1.50831
 Alpha virt. eigenvalues --    1.52870   1.56165   1.59638   1.66405   1.71992
 Alpha virt. eigenvalues --    1.77385   1.86673   1.91959   1.96067   1.97952
 Alpha virt. eigenvalues --    2.00560   2.02737   2.07860   2.10648   2.13505
 Alpha virt. eigenvalues --    2.21657   2.22706   2.25115   2.30546   2.33139
 Alpha virt. eigenvalues --    2.37333   2.38990   2.43245   2.47515   2.53092
 Alpha virt. eigenvalues --    2.57290   2.60789   2.64754   2.67582   2.72471
 Alpha virt. eigenvalues --    2.79660   2.82991   2.85497   2.90206   2.91743
 Alpha virt. eigenvalues --    2.92677   2.94339   2.96159   2.97713   3.02787
 Alpha virt. eigenvalues --    3.03720   3.07066   3.10335   3.13786   3.18185
 Alpha virt. eigenvalues --    3.19654   3.21423   3.23179   3.24536   3.27306
 Alpha virt. eigenvalues --    3.27970   3.31392   3.36301   3.37511   3.41296
 Alpha virt. eigenvalues --    3.42939   3.45343   3.46613   3.47758   3.51901
 Alpha virt. eigenvalues --    3.55903   3.56501   3.61382   3.63669   3.65623
 Alpha virt. eigenvalues --    3.68907   3.70789   3.72087   3.73886   3.77128
 Alpha virt. eigenvalues --    3.77473   3.78748   3.81515   3.82290   3.83943
 Alpha virt. eigenvalues --    3.87434   3.88556   3.91166   3.91463   3.94438
 Alpha virt. eigenvalues --    3.97245   3.99683   4.02755   4.03614   4.08442
 Alpha virt. eigenvalues --    4.10010   4.12433   4.13432   4.17167   4.20006
 Alpha virt. eigenvalues --    4.21572   4.26342   4.30381   4.32965   4.35576
 Alpha virt. eigenvalues --    4.38414   4.40368   4.46919   4.59140   4.62318
 Alpha virt. eigenvalues --    4.67066   4.72264   4.75467   4.77506   4.78598
 Alpha virt. eigenvalues --    4.83604   4.85872   4.86700   4.90484   4.94009
 Alpha virt. eigenvalues --    4.96768   4.99230   5.03019   5.06454   5.11285
 Alpha virt. eigenvalues --    5.15480   5.18283   5.21021   5.26829   5.30984
 Alpha virt. eigenvalues --    5.37417   5.40275   5.54483   5.64249   5.71545
 Alpha virt. eigenvalues --    5.73863   5.79036   5.88708   5.96295   6.03708
 Alpha virt. eigenvalues --    6.14100   6.16336   6.23482   6.29741   6.33101
 Alpha virt. eigenvalues --    6.37356   6.41055   6.41992   6.46879   6.54089
 Alpha virt. eigenvalues --    6.57502   6.58469   6.62806   6.63486   6.73882
 Alpha virt. eigenvalues --    6.76251   6.84166   6.85582   6.87905   6.93254
 Alpha virt. eigenvalues --    7.12972   7.21114   7.27009   7.31053   7.49249
 Alpha virt. eigenvalues --    7.64910   9.97160  11.38231  11.62749  11.70679
 Alpha virt. eigenvalues --   12.43920
  Beta  occ. eigenvalues --  -19.69959 -19.68139 -19.62821 -10.59954 -10.55437
  Beta  occ. eigenvalues --   -1.30051  -1.15012  -0.95854  -0.83606  -0.70783
  Beta  occ. eigenvalues --   -0.63005  -0.58655  -0.55895  -0.53377  -0.52301
  Beta  occ. eigenvalues --   -0.51191  -0.44829  -0.40916  -0.37451  -0.35899
  Beta  occ. eigenvalues --   -0.34224
  Beta virt. eigenvalues --   -0.07729   0.04588   0.06284   0.10352   0.10861
  Beta virt. eigenvalues --    0.14190   0.14387   0.18248   0.20528   0.21575
  Beta virt. eigenvalues --    0.25090   0.29371   0.31226   0.36282   0.38580
  Beta virt. eigenvalues --    0.39134   0.41840   0.42977   0.45750   0.46542
  Beta virt. eigenvalues --    0.48171   0.49003   0.49770   0.50837   0.55219
  Beta virt. eigenvalues --    0.56277   0.57069   0.59046   0.60138   0.63855
  Beta virt. eigenvalues --    0.68024   0.70071   0.70553   0.70921   0.73468
  Beta virt. eigenvalues --    0.74332   0.77244   0.78614   0.82459   0.86329
  Beta virt. eigenvalues --    0.88189   0.90155   0.93124   0.98752   0.99583
  Beta virt. eigenvalues --    1.02665   1.08067   1.09390   1.11782   1.12861
  Beta virt. eigenvalues --    1.14638   1.15617   1.16851   1.20441   1.22713
  Beta virt. eigenvalues --    1.24656   1.27329   1.29586   1.31458   1.34507
  Beta virt. eigenvalues --    1.35669   1.36088   1.40142   1.43932   1.46012
  Beta virt. eigenvalues --    1.51265   1.53581   1.56695   1.59940   1.66986
  Beta virt. eigenvalues --    1.72576   1.78864   1.86752   1.92862   1.96423
  Beta virt. eigenvalues --    1.98326   2.00668   2.03164   2.08133   2.11128
  Beta virt. eigenvalues --    2.14089   2.21760   2.22621   2.25788   2.30881
  Beta virt. eigenvalues --    2.33905   2.38123   2.39561   2.43647   2.48062
  Beta virt. eigenvalues --    2.54113   2.57563   2.61809   2.65836   2.68037
  Beta virt. eigenvalues --    2.72954   2.80253   2.83329   2.86296   2.91284
  Beta virt. eigenvalues --    2.92723   2.94035   2.95407   2.97748   2.98257
  Beta virt. eigenvalues --    3.04313   3.04658   3.07811   3.11553   3.14801
  Beta virt. eigenvalues --    3.18914   3.20664   3.21838   3.24150   3.25361
  Beta virt. eigenvalues --    3.27564   3.28646   3.31831   3.36666   3.38092
  Beta virt. eigenvalues --    3.42080   3.43306   3.45900   3.46865   3.48100
  Beta virt. eigenvalues --    3.52179   3.55956   3.56985   3.62092   3.64024
  Beta virt. eigenvalues --    3.65884   3.69363   3.71166   3.72452   3.74342
  Beta virt. eigenvalues --    3.77370   3.77708   3.79082   3.82138   3.82610
  Beta virt. eigenvalues --    3.84328   3.87501   3.89172   3.91070   3.91503
  Beta virt. eigenvalues --    3.94577   3.97394   4.00424   4.02781   4.03785
  Beta virt. eigenvalues --    4.08837   4.10646   4.13032   4.13561   4.17650
  Beta virt. eigenvalues --    4.20475   4.22054   4.26875   4.31084   4.33233
  Beta virt. eigenvalues --    4.36286   4.39194   4.40706   4.48295   4.59278
  Beta virt. eigenvalues --    4.62848   4.67692   4.72832   4.75955   4.78278
  Beta virt. eigenvalues --    4.79225   4.84391   4.86366   4.87060   4.91348
  Beta virt. eigenvalues --    4.94783   4.97801   4.99680   5.04382   5.07733
  Beta virt. eigenvalues --    5.11511   5.15657   5.18952   5.21640   5.28098
  Beta virt. eigenvalues --    5.32317   5.37728   5.43235   5.54625   5.64703
  Beta virt. eigenvalues --    5.72061   5.76831   5.80269   5.89206   5.96476
  Beta virt. eigenvalues --    6.04363   6.15184   6.17173   6.23812   6.30546
  Beta virt. eigenvalues --    6.33414   6.37372   6.41689   6.42862   6.48087
  Beta virt. eigenvalues --    6.54907   6.57800   6.61367   6.63557   6.65131
  Beta virt. eigenvalues --    6.73953   6.77527   6.84769   6.86059   6.88567
  Beta virt. eigenvalues --    6.93334   7.12996   7.21000   7.28070   7.31072
  Beta virt. eigenvalues --    7.49524   7.65174   9.97890  11.38409  11.63136
  Beta virt. eigenvalues --   11.71527  12.44492
          Condensed to atoms (all electrons):
               1          2          3          4          5          6
     1  O    7.861217  -0.000109   0.000078   0.330882  -0.050499  -0.054371
     2  O   -0.000109   7.890759   0.027821   0.000856   0.001112   0.000014
     3  O    0.000078   0.027821   8.119566   0.000732  -0.091618  -0.000266
     4  C    0.330882   0.000856   0.000732   4.697165   0.312547   0.399668
     5  C   -0.050499   0.001112  -0.091618   0.312547   5.367363  -0.060957
     6  H   -0.054371   0.000014  -0.000266   0.399668  -0.060957   0.711734
     7  H   -0.033015   0.004984  -0.000043   0.385328  -0.044337  -0.069025
     8  H    0.004342  -0.025299   0.183348  -0.014034   0.235024   0.005295
     9  H   -0.003873   0.000585   0.002402  -0.025457   0.363415  -0.008315
    10  H    0.005174   0.000029  -0.003766  -0.036385   0.362103   0.002614
    11  H    0.320527  -0.000018  -0.000000  -0.043368  -0.010718  -0.010104
    12  H   -0.000023   0.310471  -0.041128  -0.000023  -0.002925  -0.000112
               7          8          9         10         11         12
     1  O   -0.033015   0.004342  -0.003873   0.005174   0.320527  -0.000023
     2  O    0.004984  -0.025299   0.000585   0.000029  -0.000018   0.310471
     3  O   -0.000043   0.183348   0.002402  -0.003766  -0.000000  -0.041128
     4  C    0.385328  -0.014034  -0.025457  -0.036385  -0.043368  -0.000023
     5  C   -0.044337   0.235024   0.363415   0.362103  -0.010718  -0.002925
     6  H   -0.069025   0.005295  -0.008315   0.002614  -0.010104  -0.000112
     7  H    0.647499  -0.009244   0.008687  -0.002732   0.010886   0.000537
     8  H   -0.009244   0.410035  -0.015245  -0.005811  -0.000779   0.000566
     9  H    0.008687  -0.015245   0.587713  -0.033781   0.007730   0.000019
    10  H   -0.002732  -0.005811  -0.033781   0.584887  -0.000073   0.000166
    11  H    0.010886  -0.000779   0.007730  -0.000073   0.476283   0.000006
    12  H    0.000537   0.000566   0.000019   0.000166   0.000006   0.464786
          Atomic-Atomic Spin Densities.
               1          2          3          4          5          6
     1  O   -0.001351   0.000032  -0.000111   0.002787   0.001380  -0.001183
     2  O    0.000032   0.136852  -0.069317  -0.001248   0.016929   0.000200
     3  O   -0.000111  -0.069317   0.591993   0.004233  -0.105284  -0.000768
     4  C    0.002787  -0.001248   0.004233  -0.029064  -0.020537   0.005687
     5  C    0.001380   0.016929  -0.105284  -0.020537   0.662506  -0.019591
     6  H   -0.001183   0.000200  -0.000768   0.005687  -0.019591   0.067451
     7  H    0.000687  -0.001260   0.001199   0.005386  -0.005658  -0.008049
     8  H   -0.000185   0.011797  -0.029700   0.000041   0.049489   0.000745
     9  H   -0.000221  -0.000403   0.003556   0.003774  -0.005597  -0.003007
    10  H   -0.000150  -0.000478   0.002807   0.003267  -0.006272  -0.001412
    11  H   -0.000323  -0.000005   0.000037   0.000591  -0.000072  -0.001080
    12  H    0.000003   0.001088  -0.001016  -0.000096   0.000461   0.000018
               7          8          9         10         11         12
     1  O    0.000687  -0.000185  -0.000221  -0.000150  -0.000323   0.000003
     2  O   -0.001260   0.011797  -0.000403  -0.000478  -0.000005   0.001088
     3  O    0.001199  -0.029700   0.003556   0.002807   0.000037  -0.001016
     4  C    0.005386   0.000041   0.003774   0.003267   0.000591  -0.000096
     5  C   -0.005658   0.049489  -0.005597  -0.006272  -0.000072   0.000461
     6  H   -0.008049   0.000745  -0.003007  -0.001412  -0.001080   0.000018
     7  H    0.018465   0.000288   0.000168   0.000307   0.000226  -0.000103
     8  H    0.000288  -0.065392  -0.000257   0.000314  -0.000138   0.000621
     9  H    0.000168  -0.000257  -0.023265   0.003951   0.000179  -0.000004
    10  H    0.000307   0.000314   0.003951  -0.030482   0.000029  -0.000061
    11  H    0.000226  -0.000138   0.000179   0.000029   0.000559  -0.000000
    12  H   -0.000103   0.000621  -0.000004  -0.000061  -0.000000  -0.005652
 Mulliken charges and spin densities:
               1          2
     1  O   -0.380331   0.001364
     2  O   -0.211204   0.094189
     3  O   -0.197127   0.397628
     4  C   -0.007911  -0.025180
     5  C   -0.380511   0.567754
     6  H    0.083826   0.039008
     7  H    0.100474   0.011657
     8  H    0.231802  -0.032376
     9  H    0.116120  -0.021125
    10  H    0.127574  -0.028180
    11  H    0.249628   0.000002
    12  H    0.267659  -0.004742
 Sum of Mulliken charges =  -0.00000   1.00000
 Mulliken charges and spin densities with hydrogens summed into heavy atoms:
               1          2
     1  O   -0.130703   0.001366
     2  O    0.056455   0.089447
     3  O    0.034675   0.365252
     4  C    0.176390   0.025486
     5  C   -0.136817   0.518449
 Electronic spatial extent (au):  <R**2>=            669.0775
 Charge=             -0.0000 electrons
 Dipole moment (field-independent basis, Debye):
    X=             -0.9047    Y=              1.7753    Z=              1.8692  Tot=              2.7320
 Quadrupole moment (field-independent basis, Debye-Ang):
   XX=            -32.0661   YY=            -33.5725   ZZ=            -27.5475
   XY=             -4.5443   XZ=              5.9780   YZ=             -2.0483
 Traceless Quadrupole moment (field-independent basis, Debye-Ang):
   XX=             -1.0041   YY=             -2.5105   ZZ=              3.5145
   XY=             -4.5443   XZ=              5.9780   YZ=             -2.0483
 Octapole moment (field-independent basis, Debye-Ang**2):
  XXX=              4.2298  YYY=             -2.2278  ZZZ=             -0.8826  XYY=              4.1186
  XXY=              5.8931  XXZ=              5.0004  XZZ=              2.7475  YZZ=             -2.1565
  YYZ=              1.2197  XYZ=              0.3474
 Hexadecapole moment (field-independent basis, Debye-Ang**3):
 XXXX=           -566.5482 YYYY=           -136.7294 ZZZZ=            -71.9747 XXXY=            -23.0150
 XXXZ=             47.3621 YYYX=             -0.9282 YYYZ=             -2.4523 ZZZX=             18.2720
 ZZZY=             -2.2389 XXYY=           -131.9246 XXZZ=            -85.8272 YYZZ=            -32.5576
 XXYZ=             -8.6383 YYXZ=              2.4714 ZZXY=             -4.3737
 N-N= 1.825433103976D+02 E-N=-1.084255980341D+03  KE= 3.042776120322D+02
                          Isotropic Fermi Contact Couplings
        Atom                 a.u.       MegaHertz       Gauss      10(-4) cm-1
     1  O(17)             -0.00023       0.13994       0.04993       0.04668
     2  O(17)              0.00687      -4.16365      -1.48569      -1.38884
     3  O(17)              0.11372     -68.93810     -24.59883     -22.99527
     4  C(13)             -0.00804      -9.04216      -3.22647      -3.01614
     5  C(13)              0.21181     238.11652      84.96589      79.42712
     6  H(1)               0.01830      81.81861      29.19491      27.29175
     7  H(1)               0.00670      29.95561      10.68891       9.99212
     8  H(1)              -0.03586    -160.27511     -57.19015     -53.46202
     9  H(1)              -0.00212      -9.46578      -3.37762      -3.15744
    10  H(1)              -0.00715     -31.95282     -11.40156     -10.65831
    11  H(1)              -0.00010      -0.43044      -0.15359      -0.14358
    12  H(1)              -0.00237     -10.60077      -3.78262      -3.53604
 --------------------------------------------------------
       Center         ----  Spin Dipole Couplings  ----
                      3XX-RR        3YY-RR        3ZZ-RR
 --------------------------------------------------------
     1   Atom       -0.002784     -0.003195      0.005978
     2   Atom        0.551291     -0.312022     -0.239268
     3   Atom        1.848334     -0.991267     -0.857067
     4   Atom        0.033467     -0.016592     -0.016875
     5   Atom        0.325188     -0.105596     -0.219592
     6   Atom        0.003970     -0.002363     -0.001608
     7   Atom       -0.003759      0.003823     -0.000064
     8   Atom        0.201281     -0.095993     -0.105287
     9   Atom       -0.008751     -0.010638      0.019389
    10   Atom       -0.006526      0.000476      0.006049
    11   Atom        0.004737     -0.002765     -0.001972
    12   Atom       -0.007054     -0.015431      0.022484
 --------------------------------------------------------
                        XY            XZ            YZ
 --------------------------------------------------------
     1   Atom        0.004376     -0.002663      0.002610
     2   Atom       -0.039095     -0.112506      0.019066
     3   Atom        0.290830     -0.693468     -0.059408
     4   Atom        0.006133     -0.015523     -0.003495
     5   Atom       -0.359992     -0.233261      0.135181
     6   Atom        0.000230     -0.008481      0.001897
     7   Atom        0.003611     -0.004036     -0.009867
     8   Atom       -0.061364     -0.026990      0.016521
     9   Atom       -0.024235      0.010317     -0.028467
    10   Atom        0.002058      0.009711      0.039905
    11   Atom        0.003627      0.004030      0.002470
    12   Atom       -0.005158      0.010057     -0.004611
 --------------------------------------------------------


 ---------------------------------------------------------------------------------
              Anisotropic Spin Dipole Couplings in Principal Axis System
 ---------------------------------------------------------------------------------

       Atom             a.u.   MegaHertz   Gauss  10(-4) cm-1        Axes

              Baa    -0.0083     0.604     0.215     0.201 -0.6704  0.6980 -0.2519
     1 O(17)  Bbb     0.0014    -0.101    -0.036    -0.034  0.7174  0.6964  0.0202
              Bcc     0.0070    -0.503    -0.179    -0.168 -0.1895  0.1672  0.9675
 
              Baa    -0.3169    22.930     8.182     7.649  0.0159  0.9761 -0.2168
     2 O(17)  Bbb    -0.2520    18.237     6.508     6.083  0.1457  0.2122  0.9663
              Bcc     0.5689   -41.167   -14.690   -13.732  0.9892 -0.0469 -0.1388
 
              Baa    -1.0330    74.748    26.672    24.933  0.2412 -0.6304  0.7378
     3 O(17)  Bbb    -1.0117    73.206    26.122    24.419  0.0753  0.7701  0.6334
              Bcc     2.0447  -147.954   -52.794   -49.352  0.9675  0.0972 -0.2332
 
              Baa    -0.0219    -2.940    -1.049    -0.981  0.2169  0.3492  0.9116
     4 C(13)  Bbb    -0.0168    -2.256    -0.805    -0.753 -0.2079  0.9289 -0.3064
              Bcc     0.0387     5.196     1.854     1.733  0.9538  0.1231 -0.2741
 
              Baa    -0.3110   -41.736   -14.892   -13.922  0.3077  0.8370 -0.4525
     5 C(13)  Bbb    -0.3052   -40.960   -14.616   -13.663  0.4697  0.2800  0.8373
              Bcc     0.6163    82.696    29.508    27.584  0.8275 -0.4702 -0.3070
 
              Baa    -0.0082    -4.390    -1.566    -1.464  0.5522 -0.2762  0.7866
     6 H(1)   Bbb    -0.0020    -1.041    -0.372    -0.347  0.2217  0.9582  0.1808
              Bcc     0.0102     5.431     1.938     1.812  0.8037 -0.0745 -0.5903
 
              Baa    -0.0084    -4.476    -1.597    -1.493  0.2474  0.5637  0.7881
     7 H(1)   Bbb    -0.0052    -2.776    -0.990    -0.926  0.9228 -0.3849 -0.0143
              Bcc     0.0136     7.251     2.587     2.419  0.2953  0.7308 -0.6154
 
              Baa    -0.1190   -63.496   -22.657   -21.180  0.0765  0.7080 -0.7021
     8 H(1)   Bbb    -0.0972   -51.855   -18.503   -17.297  0.2033  0.6783  0.7061
              Bcc     0.2162   115.351    41.160    38.477  0.9761 -0.1967 -0.0921
 
              Baa    -0.0381   -20.308    -7.246    -6.774  0.5468  0.7851  0.2908
     9 H(1)   Bbb    -0.0074    -3.967    -1.416    -1.323  0.7435 -0.2957 -0.5998
              Bcc     0.0455    24.275     8.662     8.097  0.3849 -0.5442  0.7455
 
              Baa    -0.0376   -20.065    -7.160    -6.693  0.1672  0.7089 -0.6852
    10 H(1)   Bbb    -0.0071    -3.777    -1.348    -1.260  0.9721 -0.2347 -0.0057
              Bcc     0.0447    23.842     8.508     7.953  0.1648  0.6651  0.7283
 
              Baa    -0.0049    -2.602    -0.928    -0.868 -0.0391  0.7873 -0.6154
    11 H(1)   Bbb    -0.0034    -1.840    -0.657    -0.614 -0.5505  0.4970  0.6708
              Bcc     0.0083     4.442     1.585     1.482  0.8339  0.3650  0.4139
 
              Baa    -0.0179    -9.544    -3.405    -3.183  0.4337  0.9010 -0.0052
    12 H(1)   Bbb    -0.0085    -4.558    -1.626    -1.520  0.8480 -0.4101 -0.3358
              Bcc     0.0264    14.101     5.032     4.704  0.3047 -0.1413  0.9419
 

 ---------------------------------------------------------------------------------

 No NMR shielding tensors so no spin-rotation constants.
 Leave Link  601 at Thu May 30 06:30:07 2019, MaxMem=   671088640 cpu:               7.5 elap:               0.4
 (Enter /shared/centos7/gaussian/g16/l701.exe)
 ... and contract with generalized density number  0.
 Compute integral first derivatives.
 Leave Link  701 at Thu May 30 06:30:07 2019, MaxMem=   671088640 cpu:               5.0 elap:               0.3
 (Enter /shared/centos7/gaussian/g16/l702.exe)
 L702 exits ... SP integral derivatives will be done elsewhere.
 Leave Link  702 at Thu May 30 06:30:07 2019, MaxMem=   671088640 cpu:               0.6 elap:               0.1
 (Enter /shared/centos7/gaussian/g16/l703.exe)
 Integral derivatives from FoFJK, PRISM(SPDF).
 Compute integral first derivatives, UseDBF=F ICtDFT=           0.
 Calling FoFJK, ICntrl=      2127 FMM=F ISym2X=0 I1Cent= 0 IOpClX= 1 NMat=1 NMatS=1 NMatT=0.
 FoFJK:  IHMeth= 1 ICntrl=    2127 DoSepK=F KAlg= 0 I1Cent=           0 FoldK=F
 IRaf=         0 NMat=       1 IRICut=       1 DoRegI=T DoRafI=F ISym2E= 0 IDoP0=0 IntGTp=1.
 FoFCou: FMM=F IPFlag=           0 FMFlag=      100000 FMFlg1=         800
         NFxFlg=           0 DoJE=F BraDBF=F KetDBF=F FulRan=T
         wScrn=  0.000000 ICntrl=      2127 IOpCl=  1 I1Cent=           0 NGrid=           0
         NMat0=    1 NMatS0=      1 NMatT0=    0 NMatD0=    1 NMtDS0=    0 NMtDT0=    0
 Symmetry not used in FoFCou.
 Leave Link  703 at Thu May 30 06:30:12 2019, MaxMem=   671088640 cpu:              86.3 elap:               4.3
 (Enter /shared/centos7/gaussian/g16/l716.exe)
 Dipole        =-3.55917666D-01 6.98460981D-01 7.35402508D-01
 ***** Axes restored to original set *****
 -------------------------------------------------------------------
 Center     Atomic                   Forces (Hartrees/Bohr)
 Number     Number              X              Y              Z
 -------------------------------------------------------------------
      1        8          -0.019018667   -0.014961837    0.020202775
      2        8           0.039762086    0.025073940   -0.043673485
      3        8          -0.031678564   -0.005033863    0.036488717
      4        6           0.005704612    0.012952592    0.000590711
      5        6           0.007562148   -0.006317736    0.011741348
      6        1          -0.004866062    0.003222708   -0.005316816
      7        1          -0.005856784   -0.005289321    0.008282483
      8        1           0.007799976   -0.002144927    0.020907586
      9        1           0.004786774    0.006329929   -0.009219082
     10        1          -0.005200694   -0.009885893   -0.009450498
     11        1           0.014859006    0.010318036   -0.023088773
     12        1          -0.013853830   -0.014263627   -0.007464964
 -------------------------------------------------------------------
 Cartesian Forces:  Max     0.043673485 RMS     0.016895122
 Leave Link  716 at Thu May 30 06:30:12 2019, MaxMem=   671088640 cpu:               0.6 elap:               0.0
 (Enter /shared/centos7/gaussian/g16/l103.exe)

 GradGradGradGradGradGradGradGradGradGradGradGradGradGradGradGradGradGrad
 Berny optimization.
 FormGI is forming the generalized inverse of G from B-inverse, IUseBI=4.
 Internal  Forces:  Max     0.058224656 RMS     0.011823686
 Search for a local minimum.
 Step number   1 out of a maximum of  100
 All quantities printed in internal units (Hartrees-Bohrs-Radians)
 RMS Force = .11665D-01 SwitMx=.10000D-02 MixMth= 1
 Mixed Optimization -- RFO/linear search
 Second derivative matrix not updated -- first step.
 ITU=  0
     Eigenvalues ---    0.00230   0.00230   0.00467   0.01675   0.02406
     Eigenvalues ---    0.04692   0.04733   0.04991   0.05872   0.11705
     Eigenvalues ---    0.11955   0.13833   0.14142   0.16000   0.16000
     Eigenvalues ---    0.16000   0.16000   0.22033   0.30118   0.32253
     Eigenvalues ---    0.32529   0.32552   0.32557   0.45417   0.48968
     Eigenvalues ---    0.49449   0.629371000.000001000.000001000.00000
     Eigenvalues --- 1000.000001000.000001000.000001000.000001000.00000
     Eigenvalues --- 1000.000001000.000001000.000001000.000001000.00000
     Eigenvalues --- 1000.000001000.000001000.000001000.00000
 RFO step:  Lambda=-1.19910906D-02 EMin= 2.30000000D-03
 Linear search not attempted -- first point.
 Iteration  1 RMS(Cart)=  0.05199086 RMS(Int)=  0.00267693
 Iteration  2 RMS(Cart)=  0.00272999 RMS(Int)=  0.00024744
 Iteration  3 RMS(Cart)=  0.00000992 RMS(Int)=  0.00024734
 Iteration  4 RMS(Cart)=  0.00000000 RMS(Int)=  0.00024734
 Iteration  1 RMS(Cart)=  0.00000000 RMS(Int)=  0.00000000
 ITry= 1 IFail=0 DXMaxC= 1.54D-01 DCOld= 1.00D+10 DXMaxT= 3.00D-01 DXLimC= 3.00D+00 Rises=F
 Variable       Old X    -DE/DX   Delta X   Delta X   Delta X     New X
                                 (Linear)    (Quad)   (Total)
    R1        2.64795   0.00620   0.00000   0.01329   0.01329   2.66124
    R2        1.87622  -0.02907   0.00000  -0.05795  -0.05795   1.81827
    R3        2.48689   0.05822   0.00000   0.09078   0.09078   2.57767
    R4        1.87125  -0.02074   0.00000  -0.04096  -0.04096   1.83029
    R5        2.19771   0.01307   0.00000   0.00000   0.00000   2.19771
    R6        2.87728  -0.01082   0.00000  -0.03455  -0.03455   2.84274
    R7        2.10383  -0.00742   0.00000  -0.02219  -0.02219   2.08164
    R8        2.09845  -0.01145   0.00000  -0.03391  -0.03391   2.06454
    R9        2.58638  -0.00472   0.00000   0.00000   0.00000   2.58638
   R10        2.09836  -0.01170   0.00000  -0.03465  -0.03465   2.06371
   R11        2.09887  -0.01419   0.00000  -0.04206  -0.04206   2.05681
    A1        1.85955   0.00612   0.00000   0.03558   0.03558   1.89513
    A2        1.81284   0.00814   0.00000   0.04732   0.04732   1.86016
    A3        1.82171   0.00635   0.00000   0.03691   0.03691   1.85862
    A4        1.99599  -0.00186   0.00000  -0.00749  -0.00762   1.98837
    A5        1.91443   0.00334   0.00000   0.03238   0.03239   1.94682
    A6        1.86470  -0.00026   0.00000  -0.01149  -0.01166   1.85304
    A7        1.89158  -0.00094   0.00000  -0.00140  -0.00146   1.89013
    A8        1.93291  -0.00008   0.00000  -0.01002  -0.01018   1.92273
    A9        1.85953  -0.00001   0.00000  -0.00115  -0.00113   1.85840
   A10        1.96482  -0.00448   0.00000  -0.03829  -0.03824   1.92659
   A11        1.96921   0.00249   0.00000   0.01981   0.01900   1.98821
   A12        1.95935   0.00230   0.00000   0.02147   0.02082   1.98017
   A13        1.82563  -0.00074   0.00000  -0.01839  -0.01828   1.80736
   A14        1.82451  -0.00007   0.00000  -0.01002  -0.00979   1.81473
   A15        1.91031   0.00011   0.00000   0.02129   0.02045   1.93076
   A16        2.53345   0.01948   0.00000   0.00000   0.00000   2.53345
    D1       -0.92234  -0.00038   0.00000  -0.01047  -0.01046  -0.93280
    D2        1.20666  -0.00039   0.00000   0.00694   0.00702   1.21367
    D3       -3.06757   0.00112   0.00000   0.01567   0.01558  -3.05199
    D4       -1.71723  -0.00211   0.00000  -0.05846  -0.05846  -1.77569
    D5        2.04663  -0.00174   0.00000  -0.12188  -0.12188   1.92475
    D6       -1.27889   0.00191   0.00000   0.04341   0.04335  -1.23553
    D7        0.78258  -0.00043   0.00000   0.00672   0.00638   0.78896
    D8        2.95108   0.00348   0.00000   0.06759   0.06784   3.01892
    D9        2.86285  -0.00042   0.00000   0.00770   0.00770   2.87055
   D10       -1.35887  -0.00277   0.00000  -0.02900  -0.02927  -1.38814
   D11        0.80963   0.00114   0.00000   0.03187   0.03219   0.84182
   D12        0.82896   0.00019   0.00000   0.01552   0.01554   0.84450
   D13        2.89042  -0.00215   0.00000  -0.02117  -0.02143   2.86900
   D14       -1.22426   0.00175   0.00000   0.03970   0.04003  -1.18423
   D15       -2.25686   0.00012   0.00000   0.01167   0.01179  -2.24507
   D16        1.88214   0.00014   0.00000   0.02170   0.02132   1.90346
   D17       -0.12549   0.00035   0.00000   0.00964   0.00991  -0.11559
         Item               Value     Threshold  Converged?
 Maximum Force            0.058225     0.002500     NO 
 RMS     Force            0.011665     0.001667     NO 
 Maximum Displacement     0.153669     0.010000     NO 
 RMS     Displacement     0.051652     0.006667     NO 
 Predicted change in Energy=-6.354650D-03
 Lowest energy point so far.  Saving SCF results.
 GradGradGradGradGradGradGradGradGradGradGradGradGradGradGradGradGradGrad

 Leave Link  103 at Thu May 30 06:30:12 2019, MaxMem=   671088640 cpu:               0.9 elap:               0.1
 (Enter /shared/centos7/gaussian/g16/l202.exe)
                          Input orientation:                          
 ---------------------------------------------------------------------
 Center     Atomic      Atomic             Coordinates (Angstroms)
 Number     Number       Type             X           Y           Z
 ---------------------------------------------------------------------
      1          8           0       -6.156380    1.072851    6.688139
      2          8           0       -7.670286    4.669276    4.963214
      3          8           0       -8.319523    4.439856    6.140701
      4          6           0       -5.810808    2.351632    7.166168
      5          6           0       -6.979462    3.146997    7.680556
      6          1           0       -5.053551    2.294196    7.964096
      7          1           0       -5.340047    2.872422    6.329069
      8          1           0       -7.782302    3.539479    6.643918
      9          1           0       -7.653113    2.577912    8.324722
     10          1           0       -6.690916    4.081579    8.157995
     11          1           0       -6.647394    0.611166    7.374838
     12          1           0       -7.091864    5.432031    5.110598
 ---------------------------------------------------------------------
                    Distance matrix (angstroms):
                    1          2          3          4          5
     1  O    0.000000
     2  O    4.266328   0.000000
     3  O    4.039257   1.364045   0.000000
     4  C    1.408266   3.698938   3.421390   0.000000
     5  C    2.442220   3.190379   2.416278   1.504311   0.000000
     6  H    2.082302   4.636119   4.312215   1.101556   2.125276
     7  H    2.008429   3.244111   3.371885   1.092508   2.142333
     8  H    2.954629   2.028240   1.162976   2.360194   1.368654
     9  H    2.680265   3.959019   2.946334   2.188044   1.092068
    10  H    3.390966   3.392813   2.617289   2.179685   1.088416
    11  H    0.962187   4.830166   4.356372   1.942329   2.575689
    12  H    4.729293   0.968550   1.884853   3.918587   3.440740
                    6          7          8          9         10
     6  H    0.000000
     7  H    1.757766   0.000000
     8  H    3.277145   2.551217   0.000000
     9  H    2.639748   3.069144   1.940722   0.000000
    10  H    2.431727   2.575243   1.943560   1.792940   0.000000
    11  H    2.391684   2.813551   3.224481   2.404546   3.557948
    12  H    4.705653   3.332436   2.531705   4.334926   3.357247
                   11         12
    11  H    0.000000
    12  H    5.344630   0.000000
 Stoichiometry    C2H7O3(2)
 Framework group  C1[X(C2H7O3)]
 Deg. of freedom    30
 Full point group                 C1      NOp   1
 RotChk:  IX=0 Diff= 3.28D-02
 Largest Abelian subgroup         C1      NOp   1
 Largest concise Abelian subgroup C1      NOp   1
                         Standard orientation:                         
 ---------------------------------------------------------------------
 Center     Atomic      Atomic             Coordinates (Angstroms)
 Number     Number       Type             X           Y           Z
 ---------------------------------------------------------------------
      1          8           0       -2.068910   -0.758876   -0.445399
      2          8           0        2.156523   -0.759959    0.143896
      3          8           0        1.795291    0.417362   -0.442658
      4          6           0       -1.441678   -0.019316    0.575799
      5          6           0       -0.485461    1.027015    0.072020
      6          1           0       -2.178773    0.472276    1.230363
      7          1           0       -0.912089   -0.745958    1.196363
      8          1           0        0.632544    0.437750   -0.453380
      9          1           0       -0.875614    1.620733   -0.757373
     10          1           0       -0.097614    1.673427    0.857116
     11          1           0       -2.480294   -0.144146   -1.060764
     12          1           0        2.411446   -0.548496    1.054053
 ---------------------------------------------------------------------
 Rotational constants (GHZ):           8.7284704           1.9567077           1.7953431
 Leave Link  202 at Thu May 30 06:30:12 2019, MaxMem=   671088640 cpu:               0.2 elap:               0.0
 (Enter /shared/centos7/gaussian/g16/l301.exe)
 Standard basis: CC-pVTZ (5D, 7F)
 Ernie: Thresh=  0.10000D-02 Tol=  0.10000D-05 Strict=F.
 Ernie:  15 primitive shells out of 186 were deleted.
 There are   280 symmetry adapted cartesian basis functions of A   symmetry.
 There are   248 symmetry adapted basis functions of A   symmetry.
   248 basis functions,   379 primitive gaussians,   280 cartesian basis functions
    22 alpha electrons       21 beta electrons
       nuclear repulsion energy       182.6028569175 Hartrees.
 IExCor= 4336 DFT=T Ex+Corr=M062X ExCW=0 ScaHFX=  0.540000
 ScaDFX=  1.000000  1.000000  1.000000  1.000000 ScalE2=  1.000000  1.000000
 IRadAn=      1 IRanWt=     -1 IRanGd=            0 ICorTp=0 IEmpDi=  4
 NAtoms=   12 NActive=   12 NUniq=   12 SFac= 1.00D+00 NAtFMM=   60 NAOKFM=F Big=F
 Integral buffers will be    131072 words long.
 Raffenetti 2 integral format.
 Two-electron integral symmetry is turned on.
 Leave Link  301 at Thu May 30 06:30:12 2019, MaxMem=   671088640 cpu:               1.1 elap:               0.1
 (Enter /shared/centos7/gaussian/g16/l302.exe)
 NPDir=0 NMtPBC=     1 NCelOv=     1 NCel=       1 NClECP=     1 NCelD=      1
         NCelK=      1 NCelE2=     1 NClLst=     1 CellRange=     0.0.
 One-electron integrals computed using PRISM.
 One-electron integral symmetry used in STVInt
 NBasis=   248 RedAO= T EigKep=  9.87D-04  NBF=   248
 NBsUse=   248 1.00D-06 EigRej= -1.00D+00 NBFU=   248
 Precomputing XC quadrature grid using
 IXCGrd= 4 IRadAn=           1 IRanWt=          -1 IRanGd=           0 AccXCQ= 0.00D+00.
 Generated NRdTot=       0 NPtTot=           0 NUsed=           0 NTot=          32
 NSgBfM=   280   280   280   280   280 MxSgAt=    12 MxSgA2=    12.
 Leave Link  302 at Thu May 30 06:30:12 2019, MaxMem=   671088640 cpu:               5.5 elap:               0.3
 (Enter /shared/centos7/gaussian/g16/l303.exe)
 DipDrv:  MaxL=1.
 Leave Link  303 at Thu May 30 06:30:12 2019, MaxMem=   671088640 cpu:               1.4 elap:               0.1
 (Enter /shared/centos7/gaussian/g16/l401.exe)
 Initial guess from the checkpoint file:  "/scratch/harms.n/gauss_scrdir/Gau-4921.chk"
 B after Tr=     0.000000   -0.000000    0.000000
         Rot=    0.999985   -0.000276   -0.002426   -0.004958 Ang=  -0.63 deg.
 Guess basis will be translated and rotated to current coordinates.
 JPrj=2 DoOrth=T DoCkMO=T.
 Initial guess <Sx>= 0.0000 <Sy>= 0.0000 <Sz>= 0.5000 <S**2>= 0.7598 S= 0.5049
 Generating alternative initial guess.
 ExpMin= 1.03D-01 ExpMax= 1.53D+04 ExpMxC= 5.22D+02 IAcc=1 IRadAn=         1 AccDes= 0.00D+00
 Harris functional with IExCor= 1009 and IRadAn=       1 diagonalized for initial guess.
 HarFok:  IExCor= 1009 AccDes= 0.00D+00 IRadAn=         1 IDoV= 1 UseB2=F ITyADJ=14
 ICtDFT=  3500011 ScaDFX=  1.000000  1.000000  1.000000  1.000000
 FoFCou: FMM=F IPFlag=           0 FMFlag=      100000 FMFlg1=           0
         NFxFlg=           0 DoJE=T BraDBF=F KetDBF=T FulRan=T
         wScrn=  0.000000 ICntrl=       500 IOpCl=  0 I1Cent=   200000004 NGrid=           0
         NMat0=    1 NMatS0=      1 NMatT0=    0 NMatD0=    1 NMtDS0=    0 NMtDT0=    0
 Petite list used in FoFCou.
 Harris En= -305.776390657279    
 Leave Link  401 at Thu May 30 06:30:13 2019, MaxMem=   671088640 cpu:              15.5 elap:               0.8
 (Enter /shared/centos7/gaussian/g16/l502.exe)
 Integral symmetry usage will be decided dynamically.
 UHF open shell SCF:
 Using DIIS extrapolation, IDIIS=  1040.
 NGot=   671088640 LenX=   670923676 LenY=   670844835
 Requested convergence on RMS density matrix=1.00D-08 within 900 cycles.
 Requested convergence on MAX density matrix=1.00D-06.
 Requested convergence on             energy=1.00D-06.
 No special actions if energy rises.
 Fock matrices will be formed incrementally for  20 cycles.

 Cycle   1  Pass 1  IDiag  1:
 FoFJK:  IHMeth= 1 ICntrl=       0 DoSepK=F KAlg= 0 I1Cent=           0 FoldK=F
 IRaf= 960000000 NMat=       1 IRICut=       1 DoRegI=T DoRafI=F ISym2E= 0 IDoP0=0 IntGTp=1.
 FoFCou: FMM=F IPFlag=           0 FMFlag=      100000 FMFlg1=           0
         NFxFlg=           0 DoJE=F BraDBF=F KetDBF=F FulRan=T
         wScrn=  0.000000 ICntrl=         0 IOpCl=  1 I1Cent=           0 NGrid=           0
         NMat0=    1 NMatS0=      1 NMatT0=    0 NMatD0=    1 NMtDS0=    0 NMtDT0=    0
 Symmetry not used in FoFCou.
 E= -305.879015028213    
 DIIS: error= 3.17D-03 at cycle   1 NSaved=   1.
 NSaved= 1 IEnMin= 1 EnMin= -305.879015028213     IErMin= 1 ErrMin= 3.17D-03
 ErrMax= 3.17D-03  0.00D+00 EMaxC= 1.00D-01 BMatC= 2.39D-02 BMatP= 2.39D-02
 IDIUse=3 WtCom= 9.68D-01 WtEn= 3.17D-02
 Coeff-Com:  0.100D+01
 Coeff-En:   0.100D+01
 Coeff:      0.100D+01
 Gap=     0.803 Goal=   None    Shift=    0.000
 Gap=     0.821 Goal=   None    Shift=    0.000
 GapD=    0.803 DampG=2.000 DampE=1.000 DampFc=2.0000 IDamp=-1.
 RMSDP=3.10D-04 MaxDP=9.17D-03              OVMax= 2.47D-02

 Cycle   2  Pass 1  IDiag  1:
 RMSU=  3.10D-04    CP:  9.99D-01
 E= -305.886283624031     Delta-E=       -0.007268595819 Rises=F Damp=F
 DIIS: error= 8.96D-04 at cycle   2 NSaved=   2.
 NSaved= 2 IEnMin= 2 EnMin= -305.886283624031     IErMin= 2 ErrMin= 8.96D-04
 ErrMax= 8.96D-04  0.00D+00 EMaxC= 1.00D-01 BMatC= 1.42D-03 BMatP= 2.39D-02
 IDIUse=3 WtCom= 9.91D-01 WtEn= 8.96D-03
 Coeff-Com: -0.424D-01 0.104D+01
 Coeff-En:   0.000D+00 0.100D+01
 Coeff:     -0.421D-01 0.104D+01
 Gap=     0.345 Goal=   None    Shift=    0.000
 Gap=     0.266 Goal=   None    Shift=    0.000
 RMSDP=1.03D-04 MaxDP=3.44D-03 DE=-7.27D-03 OVMax= 1.31D-02

 Cycle   3  Pass 1  IDiag  1:
 RMSU=  8.06D-05    CP:  9.99D-01  1.21D+00
 E= -305.886582951832     Delta-E=       -0.000299327801 Rises=F Damp=F
 DIIS: error= 7.69D-04 at cycle   3 NSaved=   3.
 NSaved= 3 IEnMin= 3 EnMin= -305.886582951832     IErMin= 3 ErrMin= 7.69D-04
 ErrMax= 7.69D-04  0.00D+00 EMaxC= 1.00D-01 BMatC= 1.58D-03 BMatP= 1.42D-03
 IDIUse=3 WtCom= 2.65D-01 WtEn= 7.35D-01
 Coeff-Com: -0.715D-01 0.570D+00 0.501D+00
 Coeff-En:   0.000D+00 0.000D+00 0.100D+01
 Coeff:     -0.190D-01 0.151D+00 0.868D+00
 Gap=     0.344 Goal=   None    Shift=    0.000
 Gap=     0.270 Goal=   None    Shift=    0.000
 RMSDP=8.46D-05 MaxDP=3.03D-03 DE=-2.99D-04 OVMax= 1.02D-02

 Cycle   4  Pass 1  IDiag  1:
 RMSU=  6.21D-05    CP:  9.99D-01  1.30D+00  3.71D-01
 E= -305.886555820580     Delta-E=        0.000027131253 Rises=F Damp=F
 DIIS: error= 9.47D-04 at cycle   4 NSaved=   4.
 NSaved= 4 IEnMin= 3 EnMin= -305.886582951832     IErMin= 3 ErrMin= 7.69D-04
 ErrMax= 9.47D-04  0.00D+00 EMaxC= 1.00D-01 BMatC= 2.04D-03 BMatP= 1.42D-03
 IDIUse=3 WtCom= 2.45D-01 WtEn= 7.55D-01
 Coeff-Com: -0.118D-01-0.552D-01 0.556D+00 0.511D+00
 Coeff-En:   0.000D+00 0.000D+00 0.520D+00 0.480D+00
 Coeff:     -0.289D-02-0.135D-01 0.529D+00 0.488D+00
 Gap=     0.345 Goal=   None    Shift=    0.000
 Gap=     0.268 Goal=   None    Shift=    0.000
 RMSDP=4.30D-05 MaxDP=1.71D-03 DE= 2.71D-05 OVMax= 4.90D-03

 Cycle   5  Pass 1  IDiag  1:
 RMSU=  1.27D-05    CP:  9.99D-01  1.30D+00  8.16D-01  6.78D-01
 E= -305.886900146262     Delta-E=       -0.000344325683 Rises=F Damp=F
 DIIS: error= 1.33D-04 at cycle   5 NSaved=   5.
 NSaved= 5 IEnMin= 5 EnMin= -305.886900146262     IErMin= 5 ErrMin= 1.33D-04
 ErrMax= 1.33D-04  0.00D+00 EMaxC= 1.00D-01 BMatC= 1.73D-05 BMatP= 1.42D-03
 IDIUse=3 WtCom= 9.99D-01 WtEn= 1.33D-03
 Coeff-Com:  0.502D-02-0.948D-01 0.887D-01 0.167D+00 0.834D+00
 Coeff-En:   0.000D+00 0.000D+00 0.000D+00 0.000D+00 0.100D+01
 Coeff:      0.501D-02-0.947D-01 0.885D-01 0.167D+00 0.834D+00
 Gap=     0.345 Goal=   None    Shift=    0.000
 Gap=     0.268 Goal=   None    Shift=    0.000
 RMSDP=1.37D-05 MaxDP=4.47D-04 DE=-3.44D-04 OVMax= 3.01D-03

 Cycle   6  Pass 1  IDiag  1:
 RMSU=  7.01D-06    CP:  9.99D-01  1.32D+00  8.75D-01  8.12D-01  1.23D+00
 E= -305.886911589109     Delta-E=       -0.000011442846 Rises=F Damp=F
 DIIS: error= 5.42D-05 at cycle   6 NSaved=   6.
 NSaved= 6 IEnMin= 6 EnMin= -305.886911589109     IErMin= 6 ErrMin= 5.42D-05
 ErrMax= 5.42D-05  0.00D+00 EMaxC= 1.00D-01 BMatC= 4.36D-06 BMatP= 1.73D-05
 IDIUse=1 WtCom= 1.00D+00 WtEn= 0.00D+00
 Coeff-Com:  0.473D-02-0.235D-01-0.111D+00-0.659D-01 0.319D+00 0.876D+00
[...]
 Alpha virt. eigenvalues --    3.44271   3.46125   3.47417   3.48930   3.51742
 Alpha virt. eigenvalues --    3.55350   3.58366   3.61346   3.64770   3.67681
 Alpha virt. eigenvalues --    3.70490   3.72746   3.74065   3.77108   3.78989
 Alpha virt. eigenvalues --    3.80981   3.83338   3.85172   3.86005   3.87825
 Alpha virt. eigenvalues --    3.88254   3.91067   3.94706   3.95990   3.98904
 Alpha virt. eigenvalues --    4.00548   4.03248   4.04719   4.08385   4.09830
 Alpha virt. eigenvalues --    4.10685   4.16357   4.19294   4.21698   4.22567
 Alpha virt. eigenvalues --    4.22789   4.28260   4.35554   4.36125   4.40651
 Alpha virt. eigenvalues --    4.43136   4.45609   4.47997   4.64069   4.68132
 Alpha virt. eigenvalues --    4.70444   4.75623   4.76842   4.80431   4.84794
 Alpha virt. eigenvalues --    4.85607   4.88609   4.92123   4.93698   4.99818
 Alpha virt. eigenvalues --    5.01355   5.02238   5.08207   5.11482   5.14447
 Alpha virt. eigenvalues --    5.17525   5.22696   5.25354   5.32310   5.36251
 Alpha virt. eigenvalues --    5.41483   5.45082   5.54865   5.57171   5.73843
 Alpha virt. eigenvalues --    5.75746   5.76972   5.83651   5.94929   5.97070
 Alpha virt. eigenvalues --    6.09413   6.18665   6.19364   6.32650   6.36005
 Alpha virt. eigenvalues --    6.37679   6.46168   6.48092   6.54863   6.57442
 Alpha virt. eigenvalues --    6.62287   6.64435   6.69191   6.69820   6.71537
 Alpha virt. eigenvalues --    6.74445   6.84016   6.86823   6.88594   6.96425
 Alpha virt. eigenvalues --    7.12930   7.13581   7.18916   7.38358   7.44044
 Alpha virt. eigenvalues --    7.58760   9.90441  11.21857  11.79728  12.07463
 Alpha virt. eigenvalues --   12.82379
  Beta  occ. eigenvalues --  -19.69183 -19.67958 -19.62443 -10.59385 -10.55448
  Beta  occ. eigenvalues --   -1.25796  -1.15160  -0.97185  -0.84740  -0.71175
  Beta  occ. eigenvalues --   -0.61230  -0.58755  -0.56015  -0.53667  -0.51438
  Beta  occ. eigenvalues --   -0.49783  -0.45516  -0.41089  -0.38273  -0.36198
  Beta  occ. eigenvalues --   -0.35214
  Beta virt. eigenvalues --   -0.07643   0.05246   0.06551   0.10397   0.10983
  Beta virt. eigenvalues --    0.13411   0.15357   0.16216   0.19406   0.23017
  Beta virt. eigenvalues --    0.23949   0.28030   0.32420   0.35943   0.38323
  Beta virt. eigenvalues --    0.40827   0.43065   0.44697   0.46084   0.47383
  Beta virt. eigenvalues --    0.48692   0.49205   0.50023   0.51564   0.55238
  Beta virt. eigenvalues --    0.56778   0.58639   0.59927   0.60663   0.63341
  Beta virt. eigenvalues --    0.67734   0.69413   0.70795   0.72565   0.74841
  Beta virt. eigenvalues --    0.76179   0.77495   0.81807   0.84905   0.86139
  Beta virt. eigenvalues --    0.92534   0.93502   0.94894   0.98469   1.00650
  Beta virt. eigenvalues --    1.03091   1.07459   1.08784   1.10419   1.12336
  Beta virt. eigenvalues --    1.15247   1.17660   1.20026   1.21633   1.23836
  Beta virt. eigenvalues --    1.24554   1.29584   1.34063   1.35761   1.35889
  Beta virt. eigenvalues --    1.37421   1.38803   1.42426   1.43455   1.50753
  Beta virt. eigenvalues --    1.51571   1.57656   1.58417   1.59530   1.62750
  Beta virt. eigenvalues --    1.72885   1.80852   1.89698   1.92268   1.92724
  Beta virt. eigenvalues --    1.98525   1.99697   2.03152   2.10313   2.11072
  Beta virt. eigenvalues --    2.14737   2.18269   2.21545   2.29695   2.32907
  Beta virt. eigenvalues --    2.36182   2.38057   2.43050   2.45331   2.51335
  Beta virt. eigenvalues --    2.55777   2.57824   2.62927   2.69126   2.70006
  Beta virt. eigenvalues --    2.74836   2.80354   2.84484   2.86773   2.89908
  Beta virt. eigenvalues --    2.93710   2.94715   2.96633   2.97770   3.02575
  Beta virt. eigenvalues --    3.02603   3.08070   3.09266   3.12567   3.17656
  Beta virt. eigenvalues --    3.18910   3.20326   3.23880   3.25886   3.28197
  Beta virt. eigenvalues --    3.28927   3.30757   3.32556   3.37613   3.41483
  Beta virt. eigenvalues --    3.43694   3.45019   3.46605   3.47827   3.49419
  Beta virt. eigenvalues --    3.51930   3.55622   3.58543   3.62105   3.65495
  Beta virt. eigenvalues --    3.68019   3.70964   3.72989   3.74250   3.77922
  Beta virt. eigenvalues --    3.79420   3.81478   3.83791   3.85744   3.86439
  Beta virt. eigenvalues --    3.88205   3.88831   3.91365   3.94919   3.96010
  Beta virt. eigenvalues --    3.99277   4.01140   4.03385   4.05252   4.08664
  Beta virt. eigenvalues --    4.10273   4.11312   4.16619   4.19752   4.22176
  Beta virt. eigenvalues --    4.23036   4.23550   4.28776   4.35732   4.36984
  Beta virt. eigenvalues --    4.41393   4.43989   4.46978   4.49081   4.64539
  Beta virt. eigenvalues --    4.68494   4.71055   4.76796   4.77663   4.81068
  Beta virt. eigenvalues --    4.85672   4.86846   4.89455   4.92823   4.94748
  Beta virt. eigenvalues --    5.00907   5.02531   5.03183   5.09250   5.12264
  Beta virt. eigenvalues --    5.16232   5.18241   5.23219   5.27265   5.33724
  Beta virt. eigenvalues --    5.37214   5.42815   5.48121   5.55413   5.57782
  Beta virt. eigenvalues --    5.74123   5.77204   5.79918   5.84709   5.95227
  Beta virt. eigenvalues --    5.97363   6.10305   6.18795   6.20861   6.33413
  Beta virt. eigenvalues --    6.36585   6.37828   6.46653   6.48446   6.56062
  Beta virt. eigenvalues --    6.59379   6.63497   6.64504   6.69448   6.70895
  Beta virt. eigenvalues --    6.71951   6.74986   6.84228   6.87665   6.89241
  Beta virt. eigenvalues --    6.96494   7.13068   7.13679   7.19740   7.38381
  Beta virt. eigenvalues --    7.44278   7.59079   9.91224  11.21994  11.79833
  Beta virt. eigenvalues --   12.08189  12.83105
          Condensed to atoms (all electrons):
               1          2          3          4          5          6
     1  O    7.855195   0.000074  -0.000100   0.322169  -0.053098  -0.048779
     2  O    0.000074   7.895367   0.055595  -0.019925   0.012459  -0.000477
     3  O   -0.000100   0.055595   8.085272   0.009421  -0.094927  -0.000087
     4  C    0.322169  -0.019925   0.009421   4.759012   0.294296   0.394165
     5  C   -0.053098   0.012459  -0.094927   0.294296   5.395431  -0.060911
     6  H   -0.048779  -0.000477  -0.000087   0.394165  -0.060911   0.697321
     7  H   -0.028631   0.023364  -0.003942   0.393160  -0.044480  -0.065888
     8  H    0.007161  -0.035166   0.197951  -0.010790   0.217147   0.006752
     9  H   -0.002568   0.001589   0.001079  -0.029490   0.375450  -0.006669
    10  H    0.005835   0.002467  -0.004398  -0.045135   0.359788   0.004006
    11  H    0.318058  -0.000026  -0.000023  -0.037812  -0.007300  -0.011160
    12  H   -0.000025   0.304298  -0.030452   0.000598  -0.004126  -0.000164
               7          8          9         10         11         12
     1  O   -0.028631   0.007161  -0.002568   0.005835   0.318058  -0.000025
     2  O    0.023364  -0.035166   0.001589   0.002467  -0.000026   0.304298
     3  O   -0.003942   0.197951   0.001079  -0.004398  -0.000023  -0.030452
     4  C    0.393160  -0.010790  -0.029490  -0.045135  -0.037812   0.000598
     5  C   -0.044480   0.217147   0.375450   0.359788  -0.007300  -0.004126
     6  H   -0.065888   0.006752  -0.006669   0.004006  -0.011160  -0.000164
     7  H    0.590872  -0.011547   0.007650  -0.003637   0.009415  -0.001156
     8  H   -0.011547   0.399947  -0.014184  -0.005701  -0.001166   0.001552
     9  H    0.007650  -0.014184   0.557758  -0.024269   0.005332   0.000107
    10  H   -0.003637  -0.005701  -0.024269   0.569914  -0.000112   0.002305
    11  H    0.009415  -0.001166   0.005332  -0.000112   0.485228   0.000009
    12  H   -0.001156   0.001552   0.000107   0.002305   0.000009   0.458822
          Atomic-Atomic Spin Densities.
               1          2          3          4          5          6
     1  O   -0.002915   0.000006  -0.000152   0.003994   0.001373  -0.001020
     2  O    0.000006   0.061568  -0.042363  -0.003357   0.019507   0.000664
     3  O   -0.000152  -0.042363   0.556342   0.010352  -0.115371  -0.001044
     4  C    0.003994  -0.003357   0.010352  -0.023209  -0.045540   0.005764
     5  C    0.001373   0.019507  -0.115371  -0.045540   0.763651  -0.016986
     6  H   -0.001020   0.000664  -0.001044   0.005764  -0.016986   0.065965
     7  H    0.000047  -0.003508   0.002928   0.010641  -0.010436  -0.008351
     8  H    0.000062   0.008480  -0.032984  -0.006714   0.062964   0.000541
     9  H    0.000009  -0.000420   0.002950   0.006213  -0.006350  -0.002059
    10  H   -0.000188  -0.001374   0.002748   0.005497  -0.006129  -0.001045
    11  H   -0.000364  -0.000003   0.000037   0.000472  -0.000250  -0.000852
    12  H    0.000001   0.001213  -0.001060   0.000045  -0.000374   0.000009
               7          8          9         10         11         12
     1  O    0.000047   0.000062   0.000009  -0.000188  -0.000364   0.000001
     2  O   -0.003508   0.008480  -0.000420  -0.001374  -0.000003   0.001213
     3  O    0.002928  -0.032984   0.002950   0.002748   0.000037  -0.001060
     4  C    0.010641  -0.006714   0.006213   0.005497   0.000472   0.000045
     5  C   -0.010436   0.062964  -0.006350  -0.006129  -0.000250  -0.000374
     6  H   -0.008351   0.000541  -0.002059  -0.001045  -0.000852   0.000009
     7  H    0.021188   0.000013   0.000207   0.000375   0.000243  -0.000036
     8  H    0.000013  -0.061015   0.000350   0.001147  -0.000102   0.000143
     9  H    0.000207   0.000350  -0.031594   0.003047   0.000068  -0.000007
    10  H    0.000375   0.001147   0.003047  -0.036531   0.000018  -0.000073
    11  H    0.000243  -0.000102   0.000068   0.000018   0.001041  -0.000000
    12  H   -0.000036   0.000143  -0.000007  -0.000073  -0.000000  -0.001723
 Mulliken charges and spin densities:
               1          2
     1  O   -0.375292   0.000852
     2  O   -0.239618   0.040413
     3  O   -0.215391   0.382382
     4  C   -0.029668  -0.035842
     5  C   -0.389728   0.646061
     6  H    0.091892   0.041586
     7  H    0.134820   0.013309
     8  H    0.248044  -0.027115
     9  H    0.128215  -0.027584
    10  H    0.138937  -0.032507
    11  H    0.239557   0.000308
    12  H    0.268232  -0.001863
 Sum of Mulliken charges =  -0.00000   1.00000
 Mulliken charges and spin densities with hydrogens summed into heavy atoms:
               1          2
     1  O   -0.135735   0.001160
     2  O    0.028614   0.038550
     3  O    0.032653   0.355267
     4  C    0.197044   0.019054
     5  C   -0.122576   0.585970
 Electronic spatial extent (au):  <R**2>=            583.3388
 Charge=             -0.0000 electrons
 Dipole moment (field-independent basis, Debye):
    X=             -0.7555    Y=              2.7293    Z=              2.1873  Tot=              3.5782
 Quadrupole moment (field-independent basis, Debye-Ang):
   XX=            -28.0233   YY=            -32.7501   ZZ=            -30.0302
   XY=             -2.2786   XZ=              4.5179   YZ=             -1.0713
 Traceless Quadrupole moment (field-independent basis, Debye-Ang):
   XX=              2.2446   YY=             -2.4823   ZZ=              0.2377
   XY=             -2.2786   XZ=              4.5179   YZ=             -1.0713
 Octapole moment (field-independent basis, Debye-Ang**2):
  XXX=              4.0949  YYY=             -2.1947  ZZZ=             -0.0791  XYY=              2.0596
  XXY=             10.2312  XXZ=              6.9141  XZZ=              2.7948  YZZ=              0.0574
  YYZ=             -0.6791  XYZ=              3.9665
 Hexadecapole moment (field-independent basis, Debye-Ang**3):
 XXXX=           -409.3787 YYYY=           -122.3070 ZZZZ=            -92.6018 XXXY=            -14.7884
 XXXZ=             43.6794 YYYX=             -0.9542 YYYZ=             -2.7532 ZZZX=             11.1945
 ZZZY=             -1.6047 XXYY=           -109.1211 XXZZ=            -81.3096 YYZZ=            -35.4408
 XXYZ=             -3.3177 YYXZ=              1.7274 ZZXY=             -1.0160
 N-N= 1.879513141999D+02 E-N=-1.095251723163D+03  KE= 3.043545033746D+02
                          Isotropic Fermi Contact Couplings
        Atom                 a.u.       MegaHertz       Gauss      10(-4) cm-1
     1  O(17)             -0.00077       0.46790       0.16696       0.15608
     2  O(17)              0.00145      -0.88020      -0.31408      -0.29360
     3  O(17)              0.10187     -61.75359     -22.03522     -20.59878
     4  C(13)             -0.01296     -14.56859      -5.19844      -4.85956
     5  C(13)              0.18368     206.48684      73.67964      68.87660
     6  H(1)               0.02061      92.11880      32.87028      30.72752
     7  H(1)               0.00842      37.62460      13.42539      12.55022
     8  H(1)              -0.03144    -140.54981     -50.15167     -46.88237
     9  H(1)              -0.00342     -15.29900      -5.45907      -5.10320
    10  H(1)              -0.00831     -37.14664     -13.25484     -12.39078
    11  H(1)               0.00000       0.01152       0.00411       0.00384
    12  H(1)              -0.00105      -4.69823      -1.67645      -1.56716
 --------------------------------------------------------
       Center         ----  Spin Dipole Couplings  ----
                      3XX-RR        3YY-RR        3ZZ-RR
 --------------------------------------------------------
     1   Atom       -0.003746     -0.003462      0.007207
     2   Atom        0.237832     -0.076904     -0.160928
     3   Atom        1.194034     -0.638773     -0.555261
     4   Atom        0.027241     -0.014193     -0.013049
     5   Atom        0.153443     -0.217895      0.064452
     6   Atom        0.000454     -0.003408      0.002954
     7   Atom       -0.005372      0.010389     -0.005017
     8   Atom        0.136483     -0.074569     -0.061914
     9   Atom       -0.010274      0.005390      0.004883
    10   Atom        0.006009     -0.026463      0.020454
    11   Atom        0.005917     -0.003644     -0.002273
    12   Atom        0.001471     -0.008719      0.007248
 --------------------------------------------------------
                        XY            XZ            YZ
 --------------------------------------------------------
     1   Atom        0.003500      0.006074      0.006166
     2   Atom       -0.187232     -0.096916      0.091404
     3   Atom       -0.836878     -0.935757      0.344796
     4   Atom        0.005961     -0.019286     -0.001833
     5   Atom       -0.264528     -0.456467      0.239197
     6   Atom        0.004296     -0.009016     -0.000588
     7   Atom        0.002113     -0.002642     -0.008845
     8   Atom       -0.105613     -0.081034      0.040030
     9   Atom       -0.037780      0.006103     -0.029761
    10   Atom        0.007243      0.022275      0.034741
    11   Atom        0.003764      0.003782      0.001754
    12   Atom       -0.001605      0.013954      0.004307
 --------------------------------------------------------


 ---------------------------------------------------------------------------------
              Anisotropic Spin Dipole Couplings in Principal Axis System
 ---------------------------------------------------------------------------------

       Atom             a.u.   MegaHertz   Gauss  10(-4) cm-1        Axes

              Baa    -0.0071     0.514     0.184     0.172  0.7464 -0.6648 -0.0304
     1 O(17)  Bbb    -0.0058     0.422     0.151     0.141  0.5420  0.6338 -0.5519
              Bcc     0.0129    -0.937    -0.334    -0.313  0.3861  0.3955  0.8334
 
              Baa    -0.2211    15.997     5.708     5.336 -0.0799 -0.6057  0.7917
     2 O(17)  Bbb    -0.1351     9.775     3.488     3.261  0.4831  0.6712  0.5623
              Bcc     0.3562   -25.772    -9.196    -8.597  0.8719 -0.4274 -0.2390
 
              Baa    -0.9762    70.638    25.205    23.562  0.4989  0.6384  0.5861
     3 O(17)  Bbb    -0.9441    68.313    24.376    22.787  0.0431 -0.6937  0.7190
              Bcc     1.9203  -138.952   -49.581   -46.349  0.8656 -0.3334 -0.3736
 
              Baa    -0.0208    -2.796    -0.998    -0.933  0.3802 -0.0870  0.9208
     4 C(13)  Bbb    -0.0149    -2.002    -0.714    -0.668 -0.0816  0.9885  0.1271
              Bcc     0.0358     4.798     1.712     1.601  0.9213  0.1235 -0.3687
 
              Baa    -0.3557   -47.733   -17.032   -15.922  0.3270  0.9289 -0.1736
     5 C(13)  Bbb    -0.3496   -46.917   -16.741   -15.650  0.6447 -0.0850  0.7597
              Bcc     0.7053    94.650    33.774    31.572  0.6910 -0.3603 -0.6266
 
              Baa    -0.0090    -4.806    -1.715    -1.603  0.7077 -0.4895  0.5094
     6 H(1)   Bbb    -0.0025    -1.352    -0.482    -0.451  0.2376  0.8440  0.4809
              Bcc     0.0115     6.157     2.197     2.054 -0.6653 -0.2193  0.7136
 
              Baa    -0.0096    -5.145    -1.836    -1.716  0.3652  0.3435  0.8652
     7 H(1)   Bbb    -0.0052    -2.787    -0.995    -0.930  0.9191 -0.2810 -0.2764
              Bcc     0.0149     7.933     2.831     2.646  0.1482  0.8961 -0.4183
 
              Baa    -0.1195   -63.762   -22.752   -21.269  0.3219  0.9272 -0.1915
     8 H(1)   Bbb    -0.0907   -48.370   -17.260   -16.134  0.3624  0.0662  0.9296
              Bcc     0.2102   112.132    40.011    37.403  0.8746 -0.3687 -0.3147
 
              Baa    -0.0458   -24.412    -8.711    -8.143  0.6652  0.6759  0.3171
     9 H(1)   Bbb    -0.0064    -3.437    -1.226    -1.146 -0.5711  0.1870  0.7993
              Bcc     0.0522    27.848     9.937     9.289 -0.4810  0.7128 -0.5104
 
              Baa    -0.0453   -24.164    -8.622    -8.060  0.0898  0.8677 -0.4889
    10 H(1)   Bbb    -0.0055    -2.958    -1.055    -0.987  0.8839 -0.2956 -0.3623
              Bcc     0.0508    27.122     9.678     9.047  0.4589  0.3997  0.7935
 
              Baa    -0.0051    -2.707    -0.966    -0.903 -0.2213  0.9326 -0.2852
    11 H(1)   Bbb    -0.0037    -1.977    -0.705    -0.660 -0.4183  0.1735  0.8916
              Bcc     0.0088     4.684     1.671     1.562  0.8810  0.3166  0.3517
 
              Baa    -0.0134    -7.141    -2.548    -2.382  0.5507  0.6605 -0.5103
    12 H(1)   Bbb    -0.0054    -2.895    -1.033    -0.966 -0.5591  0.7459  0.3621
              Bcc     0.0188    10.036     3.581     3.348  0.6198  0.0859  0.7800
 

 ---------------------------------------------------------------------------------

 No NMR shielding tensors so no spin-rotation constants.
 Leave Link  601 at Thu May 30 06:36:39 2019, MaxMem=   671088640 cpu:               9.6 elap:               0.5
 (Enter /shared/centos7/gaussian/g16/l9999.exe)
 1\1\GINC-C0277\FOpt\UM062X\CC-pVTZ\C2H7O3(2)\HARMS.N\30-May-2019\0\\#p
  m062x/cc-pVTZ Opt=(ModRedun,Loose,maxcycles=900) Int(Grid=SG1) scf=(m
 axcycle=900)\\Gaussian input prepared by ASE\\0,2\O,-6.2961861778,1.06
 92903371,6.7359799022\O,-7.1425146095,4.6388707769,5.2503470871\O,-8.2
 886967493,4.1128968146,5.8314634164\C,-5.9131776774,2.3920166285,7.043
 9454254\C,-7.0150903489,3.193450921,7.6674772633\H,-5.0346660098,2.403
 3899367,7.7066577209\H,-5.6085922664,2.8533170246,6.104283549\H,-7.909
 4951007,3.3764693661,6.6477925429\H,-7.5852739363,2.6856165586,8.44363
 8938\H,-6.7558725773,4.2151103263,7.9265932888\H,-6.5554803579,0.62711
 56459,7.5483045049\H,-7.0905999896,5.5218538405,5.6375300985\\Version=
 EM64L-G16RevA.03\State=2-A\HF=-305.8903057\S2=0.759906\S2-1=0.\S2A=0.7
 50048\RMSD=8.680e-09\RMSF=3.069e-03\Dipole=0.4205781,0.4944725,1.24918
 71\Quadrupole=-2.152885,2.886998,-0.734113,1.9665485,-0.7029254,-2.604
 2552\PG=C01 [X(C2H7O3)]\\@



 WE LOSE BECAUSE WE WIN

 GAMBLERS,

 RECOLLECTING WHICH,

 TOSS THEIR DICE AGAIN....


                          EMILY DICKINSON  BOLTS OF MELODY NO. 533
 Job cpu time:       0 days  2 hours  7 minutes  5.4 seconds.
 Elapsed time:       0 days  0 hours  6 minutes 26.2 seconds.
 File lengths (MBytes):  RWF=    304 Int=      0 D2E=      0 Chk=     32 Scr=     32
 Normal termination of Gaussian 16 at Thu May 30 06:36:39 2019.
