 Entering Gaussian System, Link 0=g16
 Initial command:
 /shared/centos7/gaussian/g16/l1.exe "/scratch/harms.n/gauss_scrdir/Gau-32661.inp" -scrdir="/scratch/harms.n/gauss_scrdir/"
 Entering Link 1 = /shared/centos7/gaussian/g16/l1.exe PID=     32662.
  
 Copyright (c) 1988,1990,1992,1993,1995,1998,2003,2009,2016,
            Gaussian, Inc.  All Rights Reserved.
  
 This is part of the Gaussian(R) 16 program.  It is based on
 the Gaussian(R) 09 system (copyright 2009, Gaussian, Inc.),
 the Gaussian(R) 03 system (copyright 2003, Gaussian, Inc.),
 the Gaussian(R) 98 system (copyright 1998, Gaussian, Inc.),
 the Gaussian(R) 94 system (copyright 1995, Gaussian, Inc.),
 the Gaussian 92(TM) system (copyright 1992, Gaussian, Inc.),
 the Gaussian 90(TM) system (copyright 1990, Gaussian, Inc.),
 the Gaussian 88(TM) system (copyright 1988, Gaussian, Inc.),
 the Gaussian 86(TM) system (copyright 1986, Carnegie Mellon
 University), and the Gaussian 82(TM) system (copyright 1983,
 Carnegie Mellon University). Gaussian is a federally registered
 trademark of Gaussian, Inc.
  
 This software contains proprietary and confidential information,
 including trade secrets, belonging to Gaussian, Inc.
  
 This software is provided under written license and may be
 used, copied, transmitted, or stored only in accord with that
 written license.
  
 The following legend is applicable only to US Government
 contracts under FAR:
  
                    RESTRICTED RIGHTS LEGEND
  
 Use, reproduction and disclosure by the US Government is
 subject to restrictions as set forth in subparagraphs (a)
 and (c) of the Commercial Computer Software - Restricted
 Rights clause in FAR 52.227-19.
  
 Gaussian, Inc.
 340 Quinnipiac St., Bldg. 40, Wallingford CT 06492
  
  
 ---------------------------------------------------------------
 Warning -- This program may not be used in any manner that
 competes with the business of Gaussian, Inc. or will provide
 assistance to any competitor of Gaussian, Inc.  The licensee
 of this program is prohibited from giving any competitor of
 Gaussian, Inc. access to this program.  By using this program,
 the user acknowledges that Gaussian, Inc. is engaged in the
 business of creating and licensing software in the field of
 computational chemistry and represents and warrants to the
 licensee that it is not a competitor of Gaussian, Inc. and that
 it will not use this program in any manner prohibited above.
 ---------------------------------------------------------------
  

 Cite this work as:
 Gaussian 16, Revision A.03,
 M. J. Frisch, G. W. Trucks, H. B. Schlegel, G. E. Scuseria, 
 M. A. Robb, J. R. Cheeseman, G. Scalmani, V. Barone, 
 G. A. Petersson, H. Nakatsuji, X. Li, M. Caricato, A. V. Marenich, 
 J. Bloino, B. G. Janesko, R. Gomperts, B. Mennucci, H. P. Hratchian, 
 J. V. Ortiz, A. F. Izmaylov, J. L. Sonnenberg, D. Williams-Young, 
 F. Ding, F. Lipparini, F. Egidi, J. Goings, B. Peng, A. Petrone, 
 T. Henderson, D. Ranasinghe, V. G. Zakrzewski, J. Gao, N. Rega, 
 G. Zheng, W. Liang, M. Hada, M. Ehara, K. Toyota, R. Fukuda, 
 J. Hasegawa, M. Ishida, T. Nakajima, Y. Honda, O. Kitao, H. Nakai, 
 T. Vreven, K. Throssell, J. A. Montgomery, Jr., J. E. Peralta, 
 F. Ogliaro, M. J. Bearpark, J. J. Heyd, E. N. Brothers, K. N. Kudin, 
 V. N. Staroverov, T. A. Keith, R. Kobayashi, J. Normand, 
 K. Raghavachari, A. P. Rendell, J. C. Burant, S. S. Iyengar, 
 J. Tomasi, M. Cossi, J. M. Millam, M. Klene, C. Adamo, R. Cammi, 
 J. W. Ochterski, R. L. Martin, K. Morokuma, O. Farkas, 
 J. B. Foresman, and D. J. Fox, Gaussian, Inc., Wallingford CT, 2016.
 
 ******************************************
 Gaussian 16:  EM64L-G16RevA.03 25-Dec-2016
                30-May-2019 
 ******************************************
 %nprocshared=20
 Will use up to   20 processors via shared memory.
 %mem=5GB
 ----------------------------------------------------------------------
 #p m062x/cc-pVTZ Opt=(ts,calcfc,noeigentest,ModRedun,maxcycles=900) sc
 f=(maxcycle=900)
 ----------------------------------------------------------------------
 1/5=1,6=900,10=4,11=1,18=120,26=3,38=1/1,3;
 2/9=110,12=2,17=6,18=5,40=1/2;
 3/5=16,6=1,11=2,25=1,30=1,71=2,74=-55,140=1/1,2,3;
 4//1;
 5/5=2,7=900,38=5/2;
 8/6=4,10=90,11=11/1;
 11/6=1,8=1,9=11,15=111,16=1/1,2,10;
 10/6=1,13=1/2;
 6/7=2,8=2,9=2,10=2,28=1/1;
 7/10=1,18=20,25=1/1,2,3,16;
 1/5=1,6=900,10=4,11=1,18=20,26=3/3(2);
 2/9=110/2;
 99//99;
 2/9=110/2;
 3/5=16,6=1,11=2,25=1,30=1,71=1,74=-55/1,2,3;
 4/5=5,16=3,69=1/1;
 5/5=2,7=900,38=5/2;
 7//1,2,3,16;
 1/5=1,6=900,11=1,18=20,26=3/3(-5);
 2/9=110/2;
 6/7=2,8=2,9=2,10=2,19=2,28=1/1;
 99/9=1/99;
 Leave Link    1 at Thu May 30 06:39:08 2019, MaxMem=   671088640 cpu:              27.3 elap:               1.4
 (Enter /shared/centos7/gaussian/g16/l101.exe)
 ------------------------------
 Gaussian input prepared by ASE
 ------------------------------
 Symbolic Z-matrix:
 Charge =  0 Multiplicity = 2
 O                    -1.9981   -0.60976  -0.49551 
 O                     1.86695  -0.63865   0.35646 
 O                     1.65864   0.17484  -0.74941 
 C                    -1.21066  -0.1306    0.5729 
 C                    -0.37841   1.05923   0.20281 
 H                    -1.83707   0.1194    1.4425 
 H                    -0.56267  -0.95399   0.87402 
 H                     0.56296   0.55224  -0.6516 
 H                    -0.88754   1.82802  -0.37612 
 H                     0.23564   1.46218   1.00199 
 H                    -2.59509   0.08887  -0.77506 
 H                     2.3983   -0.07996   0.93766 
 
 Add virtual bond connecting atoms H8         and O3         Dist= 2.20D+00.
 Add virtual bond connecting atoms H8         and C5         Dist= 2.59D+00.
 The following ModRedundant input section has been read:
 B       1       2 F                                                           
 B       1       4 F                                                           
 B       1       6 F                                                           
 B       1       7 F                                                           
 B       1       9 F                                                           
 B       1      10 F                                                           
 B       1      11 F                                                           
 B       1      12 F                                                           
 B       2       4 F                                                           
 B       2       6 F                                                           
 B       2       7 F                                                           
 B       2       9 F                                                           
 B       2      10 F                                                           
 B       2      11 F                                                           
 B       2      12 F                                                           
 B       4       6 F                                                           
 B       4       7 F                                                           
 B       4       9 F                                                           
 B       4      10 F                                                           
 B       4      11 F                                                           
 B       4      12 F                                                           
 B       6       7 F                                                           
 B       6       9 F                                                           
 B       6      10 F                                                           
 B       6      11 F                                                           
 B       6      12 F                                                           
 B       7       9 F                                                           
 B       7      10 F                                                           
 B       7      11 F                                                           
 B       7      12 F                                                           
 B       9      10 F                                                           
 B       9      11 F                                                           
 B       9      12 F                                                           
 B      10      11 F                                                           
 B      10      12 F                                                           
 B      11      12 F                                                           
 
 ITRead=  0  0  0  0  0  0  0  0  0  0  0  0
 MicOpt= -1 -1 -1 -1 -1 -1 -1 -1 -1 -1 -1 -1
 NAtoms=     12 NQM=       12 NQMF=       0 NMMI=      0 NMMIF=      0
                NMic=       0 NMicF=      0.
                    Isotopes and Nuclear Properties:
 (Nuclear quadrupole moments (NQMom) in fm**2, nuclear magnetic moments (NMagM)
  in nuclear magnetons)

  Atom         1           2           3           4           5           6           7           8           9          10
 IAtWgt=          16          16          16          12          12           1           1           1           1           1
 AtmWgt=  15.9949146  15.9949146  15.9949146  12.0000000  12.0000000   1.0078250   1.0078250   1.0078250   1.0078250   1.0078250
 NucSpn=           0           0           0           0           0           1           1           1           1           1
 AtZEff=  -0.0000000  -0.0000000  -0.0000000  -0.0000000  -0.0000000  -0.0000000  -0.0000000  -0.0000000  -0.0000000  -0.0000000
 NQMom=    0.0000000   0.0000000   0.0000000   0.0000000   0.0000000   0.0000000   0.0000000   0.0000000   0.0000000   0.0000000
 NMagM=    0.0000000   0.0000000   0.0000000   0.0000000   0.0000000   2.7928460   2.7928460   2.7928460   2.7928460   2.7928460
 AtZNuc=   8.0000000   8.0000000   8.0000000   6.0000000   6.0000000   1.0000000   1.0000000   1.0000000   1.0000000   1.0000000

  Atom        11          12
 IAtWgt=           1           1
 AtmWgt=   1.0078250   1.0078250
 NucSpn=           1           1
 AtZEff=  -0.0000000  -0.0000000
 NQMom=    0.0000000   0.0000000
 NMagM=    2.7928460   2.7928460
 AtZNuc=   1.0000000   1.0000000
 Leave Link  101 at Thu May 30 06:39:08 2019, MaxMem=   671088640 cpu:               3.8 elap:               0.2
 (Enter /shared/centos7/gaussian/g16/l103.exe)

 GradGradGradGradGradGradGradGradGradGradGradGradGradGradGradGradGradGrad
 Berny optimization.
 Initialization pass.
                           ----------------------------
                           !    Initial Parameters    !
                           ! (Angstroms and Degrees)  !
 --------------------------                            --------------------------
 ! Name  Definition              Value          Derivative Info.                !
 --------------------------------------------------------------------------------
 ! R1    R(1,2)                  3.9579         frozen, calculate D2E/DX2 analyt!
 ! R2    R(1,4)                  1.4111         frozen, calculate D2E/DX2 analyt!
 ! R3    R(1,6)                  2.0769         frozen, calculate D2E/DX2 analyt!
 ! R4    R(1,7)                  2.0136         frozen, calculate D2E/DX2 analyt!
 ! R5    R(1,9)                  2.6815         frozen, calculate D2E/DX2 analyt!
 ! R6    R(1,10)                 3.3949         frozen, calculate D2E/DX2 analyt!
 ! R7    R(1,11)                 0.9605         frozen, calculate D2E/DX2 analyt!
 ! R8    R(1,12)                 4.6544         frozen, calculate D2E/DX2 analyt!
 ! R9    R(2,3)                  1.3886         calculate D2E/DX2 analytically  !
 ! R10   R(2,4)                  3.1268         frozen, calculate D2E/DX2 analyt!
 ! R11   R(2,6)                  3.9337         frozen, calculate D2E/DX2 analyt!
 ! R12   R(2,7)                  2.5041         frozen, calculate D2E/DX2 analyt!
 ! R13   R(2,9)                  3.7694         frozen, calculate D2E/DX2 analyt!
 ! R14   R(2,10)                 2.737          frozen, calculate D2E/DX2 analyt!
 ! R15   R(2,11)                 4.6604         frozen, calculate D2E/DX2 analyt!
 ! R16   R(2,12)                 0.9655         frozen, calculate D2E/DX2 analyt!
 ! R17   R(3,8)                  1.163          calculate D2E/DX2 analytically  !
 ! R18   R(4,5)                  1.4984         calculate D2E/DX2 analytically  !
 ! R19   R(4,6)                  1.1005         frozen, calculate D2E/DX2 analyt!
 ! R20   R(4,7)                  1.0902         frozen, calculate D2E/DX2 analyt!
 ! R21   R(4,9)                  2.2003         frozen, calculate D2E/DX2 analyt!
 ! R22   R(4,10)                 2.1938         frozen, calculate D2E/DX2 analyt!
 ! R23   R(4,11)                 1.9447         frozen, calculate D2E/DX2 analyt!
 ! R24   R(4,12)                 3.6277         frozen, calculate D2E/DX2 analyt!
 ! R25   R(5,8)                  1.3687         calculate D2E/DX2 analytically  !
 ! R26   R(5,9)                  1.0888         calculate D2E/DX2 analytically  !
 ! R27   R(5,10)                 1.0854         calculate D2E/DX2 analytically  !
 ! R28   R(6,7)                  1.7605         frozen, calculate D2E/DX2 analyt!
 ! R29   R(6,9)                  2.6699         frozen, calculate D2E/DX2 analyt!
 ! R30   R(6,10)                 2.5086         frozen, calculate D2E/DX2 analyt!
 ! R31   R(6,11)                 2.3437         frozen, calculate D2E/DX2 analyt!
 ! R32   R(6,12)                 4.27           frozen, calculate D2E/DX2 analyt!
 ! R33   R(7,9)                  3.0672         frozen, calculate D2E/DX2 analyt!
 ! R34   R(7,10)                 2.5479         frozen, calculate D2E/DX2 analyt!
 ! R35   R(7,11)                 2.8174         frozen, calculate D2E/DX2 analyt!
 ! R36   R(7,12)                 3.0879         frozen, calculate D2E/DX2 analyt!
 ! R37   R(9,10)                 1.8151         frozen, calculate D2E/DX2 analyt!
 ! R38   R(9,11)                 2.4697         frozen, calculate D2E/DX2 analyt!
 ! R39   R(9,12)                 4.0203         frozen, calculate D2E/DX2 analyt!
 ! R40   R(10,11)                3.6134         frozen, calculate D2E/DX2 analyt!
 ! R41   R(10,12)                2.657          frozen, calculate D2E/DX2 analyt!
 ! R42   R(11,12)                5.2817         frozen, calculate D2E/DX2 analyt!
 ! A1    A(4,1,11)             108.6761         calculate D2E/DX2 analytically  !
 ! A2    A(3,2,12)             102.8833         calculate D2E/DX2 analytically  !
 ! A3    A(2,3,8)              105.3358         calculate D2E/DX2 analytically  !
 ! A4    A(1,4,5)              113.1148         calculate D2E/DX2 analytically  !
 ! A5    A(1,4,6)              110.9648         calculate D2E/DX2 analytically  !
 ! A6    A(1,4,7)              106.5207         calculate D2E/DX2 analytically  !
 ! A7    A(5,4,6)              109.325          calculate D2E/DX2 analytically  !
 ! A8    A(5,4,7)              109.7431         calculate D2E/DX2 analytically  !
 ! A9    A(6,4,7)              106.956          calculate D2E/DX2 analytically  !
 ! A10   A(4,5,8)              104.0082         calculate D2E/DX2 analytically  !
 ! A11   A(4,5,9)              115.6128         calculate D2E/DX2 analytically  !
 ! A12   A(4,5,10)             115.2869         calculate D2E/DX2 analytically  !
 ! A13   A(8,5,9)              104.5517         calculate D2E/DX2 analytically  !
 ! A14   A(8,5,10)             102.0085         calculate D2E/DX2 analytically  !
 ! A15   A(9,5,10)             113.1984         calculate D2E/DX2 analytically  !
 ! A16   A(3,8,5)              145.1562         calculate D2E/DX2 analytically  !
 ! D1    D(11,1,4,5)           -60.4335         calculate D2E/DX2 analytically  !
 ! D2    D(11,1,4,6)            62.856          calculate D2E/DX2 analytically  !
 ! D3    D(11,1,4,7)           178.9221         calculate D2E/DX2 analytically  !
 ! D4    D(12,2,3,8)          -103.603          calculate D2E/DX2 analytically  !
 ! D5    D(2,3,8,5)             44.3462         calculate D2E/DX2 analytically  !
 ! D6    D(1,4,5,8)            -69.6957         calculate D2E/DX2 analytically  !
 ! D7    D(1,4,5,9)             44.3067         calculate D2E/DX2 analytically  !
 ! D8    D(1,4,5,10)           179.5098         calculate D2E/DX2 analytically  !
 ! D9    D(6,4,5,8)            166.1143         calculate D2E/DX2 analytically  !
 ! D10   D(6,4,5,9)            -79.8834         calculate D2E/DX2 analytically  !
 ! D11   D(6,4,5,10)            55.3197         calculate D2E/DX2 analytically  !
 ! D12   D(7,4,5,8)             49.0999         calculate D2E/DX2 analytically  !
 ! D13   D(7,4,5,9)            163.1022         calculate D2E/DX2 analytically  !
 ! D14   D(7,4,5,10)           -61.6946         calculate D2E/DX2 analytically  !
 ! D15   D(4,5,8,3)            -99.1034         calculate D2E/DX2 analytically  !
 ! D16   D(9,5,8,3)            139.2241         calculate D2E/DX2 analytically  !
 ! D17   D(10,5,8,3)            21.1059         calculate D2E/DX2 analytically  !
 --------------------------------------------------------------------------------
 Trust Radius=3.00D-01 FncErr=1.00D-07 GrdErr=1.00D-06 EigMax=2.50D+02 EigMin=1.00D-04
 Number of steps in this run=    100 maximum allowed number of steps=    100.
 Search for a saddle point of order  1.
 GradGradGradGradGradGradGradGradGradGradGradGradGradGradGradGradGradGrad

 Leave Link  103 at Thu May 30 06:39:09 2019, MaxMem=   671088640 cpu:               1.0 elap:               0.1
 (Enter /shared/centos7/gaussian/g16/l202.exe)
                          Input orientation:                          
 ---------------------------------------------------------------------
 Center     Atomic      Atomic             Coordinates (Angstroms)
 Number     Number       Type             X           Y           Z
 ---------------------------------------------------------------------
      1          8           0       -1.998102   -0.609756   -0.495505
      2          8           0        1.866947   -0.638647    0.356455
      3          8           0        1.658636    0.174837   -0.749406
      4          6           0       -1.210659   -0.130600    0.572898
      5          6           0       -0.378405    1.059227    0.202811
      6          1           0       -1.837068    0.119398    1.442503
      7          1           0       -0.562665   -0.953986    0.874021
      8          1           0        0.562956    0.552238   -0.651597
      9          1           0       -0.887543    1.828023   -0.376123
     10          1           0        0.235644    1.462183    1.001993
     11          1           0       -2.595092    0.088869   -0.775057
     12          1           0        2.398302   -0.079959    0.937656
 ---------------------------------------------------------------------
                    Distance matrix (angstroms):
                    1          2          3          4          5
     1  O    0.000000
     2  O    3.957938   0.000000
     3  O    3.748571   1.388553   0.000000
     4  C    1.411078   3.126758   3.174056   0.000000
     5  C    2.428285   2.819218   2.416278   1.498432   0.000000
     6  H    2.076890   3.933683   4.126437   1.100500   2.132560
     7  H    2.013598   2.504062   2.973875   1.090200   2.130141
     8  H    2.816667   2.033413   1.162976   2.260833   1.368653
     9  H    2.681485   3.769396   3.058658   2.200284   1.088776
    10  H    3.394857   2.737034   2.597992   2.193826   1.085413
    11  H    0.960533   4.660407   4.254674   1.944686   2.609889
    12  H    4.654353   0.965539   1.859625   3.627701   3.089959
                    6          7          8          9         10
     6  H    0.000000
     7  H    1.760519   0.000000
     8  H    3.214455   2.421414   0.000000
     9  H    2.669906   3.067243   1.951272   0.000000
    10  H    2.508636   2.547851   1.915592   1.815101   0.000000
    11  H    2.343737   2.817404   3.194248   2.469722   3.613442
    12  H    4.270009   3.087928   2.508763   4.020347   2.656959
                   11         12
    11  H    0.000000
    12  H    5.281654   0.000000
 Stoichiometry    C2H7O3(2)
 Framework group  C1[X(C2H7O3)]
 Deg. of freedom    30
 Full point group                 C1      NOp   1
 Largest Abelian subgroup         C1      NOp   1
 Largest concise Abelian subgroup C1      NOp   1
                         Standard orientation:                         
 ---------------------------------------------------------------------
 Center     Atomic      Atomic             Coordinates (Angstroms)
 Number     Number       Type             X           Y           Z
 ---------------------------------------------------------------------
      1          8           0       -1.998102   -0.609756   -0.495505
      2          8           0        1.866947   -0.638647    0.356455
      3          8           0        1.658636    0.174837   -0.749406
      4          6           0       -1.210659   -0.130600    0.572898
      5          6           0       -0.378405    1.059227    0.202811
      6          1           0       -1.837068    0.119398    1.442503
      7          1           0       -0.562665   -0.953986    0.874021
      8          1           0        0.562956    0.552238   -0.651597
      9          1           0       -0.887543    1.828023   -0.376123
     10          1           0        0.235644    1.462183    1.001993
     11          1           0       -2.595092    0.088869   -0.775057
     12          1           0        2.398302   -0.079959    0.937656
 ---------------------------------------------------------------------
 Rotational constants (GHZ):           8.6367788           2.2407515           2.1633140
 Leave Link  202 at Thu May 30 06:39:09 2019, MaxMem=   671088640 cpu:               1.0 elap:               0.1
 (Enter /shared/centos7/gaussian/g16/l301.exe)
 Standard basis: CC-pVTZ (5D, 7F)
 Ernie: Thresh=  0.10000D-02 Tol=  0.10000D-05 Strict=F.
 Ernie:  15 primitive shells out of 186 were deleted.
 There are   280 symmetry adapted cartesian basis functions of A   symmetry.
 There are   248 symmetry adapted basis functions of A   symmetry.
   248 basis functions,   379 primitive gaussians,   280 cartesian basis functions
    22 alpha electrons       21 beta electrons
       nuclear repulsion energy       187.9513320179 Hartrees.
 IExCor= 4336 DFT=T Ex+Corr=M062X ExCW=0 ScaHFX=  0.540000
 ScaDFX=  1.000000  1.000000  1.000000  1.000000 ScalE2=  1.000000  1.000000
 IRadAn=      5 IRanWt=     -1 IRanGd=            0 ICorTp=0 IEmpDi=  4
 NAtoms=   12 NActive=   12 NUniq=   12 SFac= 1.00D+00 NAtFMM=   60 NAOKFM=F Big=F
 Integral buffers will be    131072 words long.
 Raffenetti 2 integral format.
 Two-electron integral symmetry is turned on.
 Leave Link  301 at Thu May 30 06:39:09 2019, MaxMem=   671088640 cpu:               1.6 elap:               0.1
 (Enter /shared/centos7/gaussian/g16/l302.exe)
 NPDir=0 NMtPBC=     1 NCelOv=     1 NCel=       1 NClECP=     1 NCelD=      1
         NCelK=      1 NCelE2=     1 NClLst=     1 CellRange=     0.0.
 One-electron integrals computed using PRISM.
 One-electron integral symmetry used in STVInt
 NBasis=   248 RedAO= T EigKep=  8.40D-04  NBF=   248
 NBsUse=   248 1.00D-06 EigRej= -1.00D+00 NBFU=   248
 Precomputing XC quadrature grid using
 IXCGrd= 4 IRadAn=           5 IRanWt=          -1 IRanGd=           0 AccXCQ= 0.00D+00.
 Generated NRdTot=       0 NPtTot=           0 NUsed=           0 NTot=          32
 NSgBfM=   280   280   280   280   280 MxSgAt=    12 MxSgA2=    12.
 Leave Link  302 at Thu May 30 06:39:09 2019, MaxMem=   671088640 cpu:               8.2 elap:               0.4
 (Enter /shared/centos7/gaussian/g16/l303.exe)
 DipDrv:  MaxL=1.
 Leave Link  303 at Thu May 30 06:39:09 2019, MaxMem=   671088640 cpu:               0.7 elap:               0.1
 (Enter /shared/centos7/gaussian/g16/l401.exe)
 ExpMin= 1.03D-01 ExpMax= 1.53D+04 ExpMxC= 5.22D+02 IAcc=3 IRadAn=         5 AccDes= 0.00D+00
 Harris functional with IExCor= 1009 and IRadAn=       5 diagonalized for initial guess.
 HarFok:  IExCor= 1009 AccDes= 0.00D+00 IRadAn=         5 IDoV= 1 UseB2=F ITyADJ=14
 ICtDFT=  3500011 ScaDFX=  1.000000  1.000000  1.000000  1.000000
 FoFCou: FMM=F IPFlag=           0 FMFlag=      100000 FMFlg1=           0
         NFxFlg=           0 DoJE=T BraDBF=F KetDBF=T FulRan=T
         wScrn=  0.000000 ICntrl=       500 IOpCl=  0 I1Cent=   200000004 NGrid=           0
         NMat0=    1 NMatS0=      1 NMatT0=    0 NMatD0=    1 NMtDS0=    0 NMtDT0=    0
 Petite list used in FoFCou.
 Harris En= -305.774266756589    
 JPrj=0 DoOrth=F DoCkMO=F.
 Initial guess <Sx>= 0.0000 <Sy>= 0.0000 <Sz>= 0.5000 <S**2>= 0.7500 S= 0.5000
 Leave Link  401 at Thu May 30 06:39:11 2019, MaxMem=   671088640 cpu:              28.6 elap:               1.5
 (Enter /shared/centos7/gaussian/g16/l502.exe)
 Integral symmetry usage will be decided dynamically.
 UHF open shell SCF:
 Using DIIS extrapolation, IDIIS=  1040.
 NGot=   671088640 LenX=   670923676 LenY=   670844835
 Requested convergence on RMS density matrix=1.00D-08 within 900 cycles.
 Requested convergence on MAX density matrix=1.00D-06.
 Requested convergence on             energy=1.00D-06.
 No special actions if energy rises.
 Fock matrices will be formed incrementally for  20 cycles.
 Integral accuracy reduced to 1.0D-05 until final iterations.

 Cycle   1  Pass 0  IDiag  1:
 FoFJK:  IHMeth= 1 ICntrl=       0 DoSepK=F KAlg= 0 I1Cent=           0 FoldK=F
 IRaf= 970000000 NMat=       1 IRICut=       1 DoRegI=T DoRafI=F ISym2E= 0 IDoP0=0 IntGTp=1.
 FoFCou: FMM=F IPFlag=           0 FMFlag=      100000 FMFlg1=           0
         NFxFlg=           0 DoJE=F BraDBF=F KetDBF=F FulRan=T
         wScrn=  0.000000 ICntrl=         0 IOpCl=  1 I1Cent=           0 NGrid=           0
         NMat0=    1 NMatS0=      1 NMatT0=    0 NMatD0=    1 NMtDS0=    0 NMtDT0=    0
 Symmetry not used in FoFCou.
 E= -305.737340847516    
 DIIS: error= 1.98D-02 at cycle   1 NSaved=   1.
 NSaved= 1 IEnMin= 1 EnMin= -305.737340847516     IErMin= 1 ErrMin= 1.98D-02
 ErrMax= 1.98D-02  0.00D+00 EMaxC= 1.00D-01 BMatC= 8.21D-01 BMatP= 8.21D-01
 IDIUse=3 WtCom= 8.02D-01 WtEn= 1.98D-01
 Coeff-Com:  0.100D+01
 Coeff-En:   0.100D+01
 Coeff:      0.100D+01
 Gap=     0.339 Goal=   None    Shift=    0.000
 Gap=     0.332 Goal=   None    Shift=    0.000
 GapD=    0.332 DampG=1.000 DampE=0.500 DampFc=0.5000 IDamp=-1.
 Damping current iteration by 5.00D-01
 RMSDP=2.37D-03 MaxDP=1.61D-01              OVMax= 2.36D-01

 Cycle   2  Pass 0  IDiag  1:
 RMSU=  1.18D-03    CP:  1.00D+00
 E= -305.812866369334     Delta-E=       -0.075525521818 Rises=F Damp=T
 DIIS: error= 7.04D-03 at cycle   2 NSaved=   2.
 NSaved= 2 IEnMin= 2 EnMin= -305.812866369334     IErMin= 2 ErrMin= 7.04D-03
 ErrMax= 7.04D-03  0.00D+00 EMaxC= 1.00D-01 BMatC= 7.72D-02 BMatP= 8.21D-01
 IDIUse=3 WtCom= 9.30D-01 WtEn= 7.04D-02
 Coeff-Com: -0.101D+00 0.110D+01
 Coeff-En:   0.000D+00 0.100D+01
 Coeff:     -0.935D-01 0.109D+01
 Gap=     0.346 Goal=   None    Shift=    0.000
 Gap=     0.292 Goal=   None    Shift=    0.000
 RMSDP=5.53D-04 MaxDP=2.68D-02 DE=-7.55D-02 OVMax= 7.69D-02

 Cycle   3  Pass 0  IDiag  1:
 RMSU=  5.35D-04    CP:  1.01D+00  8.87D-01
 E= -305.886441085770     Delta-E=       -0.073574716436 Rises=F Damp=F
 DIIS: error= 3.27D-03 at cycle   3 NSaved=   3.
 NSaved= 3 IEnMin= 3 EnMin= -305.886441085770     IErMin= 3 ErrMin= 3.27D-03
 ErrMax= 3.27D-03  0.00D+00 EMaxC= 1.00D-01 BMatC= 1.73D-02 BMatP= 7.72D-02
 IDIUse=3 WtCom= 9.67D-01 WtEn= 3.27D-02
 Coeff-Com: -0.896D-01 0.333D+00 0.756D+00
 Coeff-En:   0.000D+00 0.000D+00 0.100D+01
 Coeff:     -0.867D-01 0.322D+00 0.764D+00
 Gap=     0.347 Goal=   None    Shift=    0.000
 Gap=     0.269 Goal=   None    Shift=    0.000
 RMSDP=2.11D-04 MaxDP=7.85D-03 DE=-7.36D-02 OVMax= 3.18D-02

 Cycle   4  Pass 0  IDiag  1:
 RMSU=  1.87D-04    CP:  1.00D+00  9.53D-01  8.93D-01
 E= -305.889338939895     Delta-E=       -0.002897854125 Rises=F Damp=F
 DIIS: error= 1.43D-03 at cycle   4 NSaved=   4.
 NSaved= 4 IEnMin= 4 EnMin= -305.889338939895     IErMin= 4 ErrMin= 1.43D-03
 ErrMax= 1.43D-03  0.00D+00 EMaxC= 1.00D-01 BMatC= 4.49D-03 BMatP= 1.73D-02
 IDIUse=3 WtCom= 9.86D-01 WtEn= 1.43D-02
 Coeff-Com: -0.300D-01 0.696D-01 0.370D+00 0.590D+00
 Coeff-En:   0.000D+00 0.000D+00 0.588D-03 0.999D+00
 Coeff:     -0.296D-01 0.686D-01 0.365D+00 0.596D+00
 Gap=     0.343 Goal=   None    Shift=    0.000
 Gap=     0.272 Goal=   None    Shift=    0.000
 RMSDP=8.49D-05 MaxDP=3.72D-03 DE=-2.90D-03 OVMax= 1.03D-02

 Cycle   5  Pass 0  IDiag  1:
 RMSU=  6.32D-05    CP:  1.00D+00  9.50D-01  9.81D-01  8.31D-01
 E= -305.890209780122     Delta-E=       -0.000870840227 Rises=F Damp=F
 DIIS: error= 5.24D-04 at cycle   5 NSaved=   5.
 NSaved= 5 IEnMin= 5 EnMin= -305.890209780122     IErMin= 5 ErrMin= 5.24D-04
 ErrMax= 5.24D-04  0.00D+00 EMaxC= 1.00D-01 BMatC= 3.81D-04 BMatP= 4.49D-03
 IDIUse=3 WtCom= 9.95D-01 WtEn= 5.24D-03
 Coeff-Com: -0.126D-02-0.916D-02 0.673D-01 0.217D+00 0.726D+00
 Coeff-En:   0.000D+00 0.000D+00 0.000D+00 0.000D+00 0.100D+01
 Coeff:     -0.125D-02-0.911D-02 0.670D-01 0.216D+00 0.728D+00
 Gap=     0.345 Goal=   None    Shift=    0.000
 Gap=     0.273 Goal=   None    Shift=    0.000
 RMSDP=4.35D-05 MaxDP=1.57D-03 DE=-8.71D-04 OVMax= 7.66D-03

 Cycle   6  Pass 0  IDiag  1:
 RMSU=  2.67D-05    CP:  1.00D+00  9.43D-01  1.01D+00  9.73D-01  1.19D+00
 E= -305.890361211367     Delta-E=       -0.000151431245 Rises=F Damp=F
 DIIS: error= 4.43D-04 at cycle   6 NSaved=   6.
 NSaved= 6 IEnMin= 6 EnMin= -305.890361211367     IErMin= 6 ErrMin= 4.43D-04
 ErrMax= 4.43D-04  0.00D+00 EMaxC= 1.00D-01 BMatC= 1.25D-04 BMatP= 3.81D-04
 IDIUse=3 WtCom= 9.96D-01 WtEn= 4.43D-03
 Coeff-Com:  0.834D-02-0.236D-01-0.717D-01-0.854D-01 0.325D+00 0.847D+00
 Coeff-En:   0.000D+00 0.000D+00 0.000D+00 0.000D+00 0.000D+00 0.100D+01
 Coeff:      0.830D-02-0.235D-01-0.714D-01-0.850D-01 0.324D+00 0.848D+00
 Gap=     0.346 Goal=   None    Shift=    0.000
 Gap=     0.274 Goal=   None    Shift=    0.000
 RMSDP=3.54D-05 MaxDP=1.17D-03 DE=-1.51D-04 OVMax= 6.61D-03

 Cycle   7  Pass 0  IDiag  1:
 RMSU=  1.59D-05    CP:  1.00D+00  9.39D-01  1.03D+00  1.07D+00  1.55D+00
                    CP:  1.16D+00
 E= -305.890437205952     Delta-E=       -0.000075994585 Rises=F Damp=F
 DIIS: error= 1.47D-04 at cycle   7 NSaved=   7.
 NSaved= 7 IEnMin= 7 EnMin= -305.890437205952     IErMin= 7 ErrMin= 1.47D-04
 ErrMax= 1.47D-04  0.00D+00 EMaxC= 1.00D-01 BMatC= 2.88D-05 BMatP= 1.25D-04
 IDIUse=3 WtCom= 9.99D-01 WtEn= 1.47D-03
 Coeff-Com:  0.316D-02-0.516D-02-0.416D-01-0.103D+00-0.110D+00 0.344D+00
 Coeff-Com:  0.912D+00
 Coeff-En:   0.000D+00 0.000D+00 0.000D+00 0.000D+00 0.000D+00 0.000D+00
 Coeff-En:   0.100D+01
 Coeff:      0.316D-02-0.515D-02-0.415D-01-0.103D+00-0.109D+00 0.343D+00
 Coeff:      0.912D+00
 Gap=     0.346 Goal=   None    Shift=    0.000
 Gap=     0.276 Goal=   None    Shift=    0.000
 RMSDP=2.25D-05 MaxDP=6.06D-04 DE=-7.60D-05 OVMax= 4.83D-03

 Cycle   8  Pass 0  IDiag  1:
 RMSU=  6.84D-06    CP:  1.00D+00  9.38D-01  1.04D+00  1.12D+00  1.77D+00
                    CP:  1.53D+00  1.28D+00
 E= -305.890459465253     Delta-E=       -0.000022259300 Rises=F Damp=F
 DIIS: error= 6.02D-05 at cycle   8 NSaved=   8.
 NSaved= 8 IEnMin= 8 EnMin= -305.890459465253     IErMin= 8 ErrMin= 6.02D-05
 ErrMax= 6.02D-05  0.00D+00 EMaxC= 1.00D-01 BMatC= 2.53D-06 BMatP= 2.88D-05
 IDIUse=1 WtCom= 1.00D+00 WtEn= 0.00D+00
 Coeff-Com: -0.190D-02 0.435D-02 0.215D-01 0.331D-01-0.269D-02-0.191D+00
 Coeff-Com: -0.220D+00 0.136D+01
 Coeff:     -0.190D-02 0.435D-02 0.215D-01 0.331D-01-0.269D-02-0.191D+00
 Coeff:     -0.220D+00 0.136D+01
 Gap=     0.346 Goal=   None    Shift=    0.000
 Gap=     0.276 Goal=   None    Shift=    0.000
 RMSDP=1.01D-05 MaxDP=3.14D-04 DE=-2.23D-05 OVMax= 2.41D-03

 Cycle   9  Pass 0  IDiag  1:
 RMSU=  3.07D-06    CP:  1.00D+00  9.38D-01  1.05D+00  1.13D+00  1.84D+00
                    CP:  1.66D+00  1.59D+00  1.74D+00
 E= -305.890463636263     Delta-E=       -0.000004171011 Rises=F Damp=F
 DIIS: error= 3.28D-05 at cycle   9 NSaved=   9.
 NSaved= 9 IEnMin= 9 EnMin= -305.890463636263     IErMin= 9 ErrMin= 3.28D-05
 ErrMax= 3.28D-05  0.00D+00 EMaxC= 1.00D-01 BMatC= 6.56D-07 BMatP= 2.53D-06
 IDIUse=1 WtCom= 1.00D+00 WtEn= 0.00D+00
 Coeff-Com: -0.856D-03 0.164D-02 0.124D-01 0.246D-01 0.234D-01-0.108D+00
 Coeff-Com: -0.211D+00 0.302D+00 0.956D+00
 Coeff:     -0.856D-03 0.164D-02 0.124D-01 0.246D-01 0.234D-01-0.108D+00
 Coeff:     -0.211D+00 0.302D+00 0.956D+00
 Gap=     0.346 Goal=   None    Shift=    0.000
 Gap=     0.276 Goal=   None    Shift=    0.000
 RMSDP=4.41D-06 MaxDP=1.56D-04 DE=-4.17D-06 OVMax= 1.07D-03

 Initial convergence to 1.0D-05 achieved.  Increase integral accuracy.
 Cycle  10  Pass 1  IDiag  1:
 E= -305.890480317729     Delta-E=       -0.000016681465 Rises=F Damp=F
 DIIS: error= 1.95D-05 at cycle   1 NSaved=   1.
 NSaved= 1 IEnMin= 1 EnMin= -305.890480317729     IErMin= 1 ErrMin= 1.95D-05
 ErrMax= 1.95D-05  0.00D+00 EMaxC= 1.00D-01 BMatC= 9.99D-07 BMatP= 9.99D-07
 IDIUse=1 WtCom= 1.00D+00 WtEn= 0.00D+00
 Coeff-Com:  0.100D+01
 Coeff:      0.100D+01
 Gap=     0.346 Goal=   None    Shift=    0.000
 Gap=     0.276 Goal=   None    Shift=    0.000
 RMSDP=4.41D-06 MaxDP=1.56D-04 DE=-1.67D-05 OVMax= 3.67D-04

 Cycle  11  Pass 1  IDiag  1:
 RMSU=  5.11D-06    CP:  1.00D+00
 E= -305.890480629030     Delta-E=       -0.000000311301 Rises=F Damp=F
 DIIS: error= 1.24D-05 at cycle   2 NSaved=   2.
 NSaved= 2 IEnMin= 2 EnMin= -305.890480629030     IErMin= 2 ErrMin= 1.24D-05
 ErrMax= 1.24D-05  0.00D+00 EMaxC= 1.00D-01 BMatC= 1.27D-07 BMatP= 9.99D-07
 IDIUse=1 WtCom= 1.00D+00 WtEn= 0.00D+00
 Coeff-Com:  0.691D-01 0.931D+00
 Coeff:      0.691D-01 0.931D+00
 Gap=     0.346 Goal=   None    Shift=    0.000
 Gap=     0.276 Goal=   None    Shift=    0.000
 RMSDP=1.23D-06 MaxDP=3.79D-05 DE=-3.11D-07 OVMax= 2.63D-04

 Cycle  12  Pass 1  IDiag  1:
 RMSU=  1.03D-06    CP:  1.00D+00  1.13D+00
 E= -305.890480711334     Delta-E=       -0.000000082305 Rises=F Damp=F
 DIIS: error= 7.59D-06 at cycle   3 NSaved=   3.
 NSaved= 3 IEnMin= 3 EnMin= -305.890480711334     IErMin= 3 ErrMin= 7.59D-06
 ErrMax= 7.59D-06  0.00D+00 EMaxC= 1.00D-01 BMatC= 1.07D-07 BMatP= 1.27D-07
 IDIUse=1 WtCom= 1.00D+00 WtEn= 0.00D+00
 Coeff-Com: -0.640D-01 0.483D+00 0.581D+00
 Coeff:     -0.640D-01 0.483D+00 0.581D+00
 Gap=     0.346 Goal=   None    Shift=    0.000
 Gap=     0.276 Goal=   None    Shift=    0.000
 RMSDP=6.21D-07 MaxDP=3.08D-05 DE=-8.23D-08 OVMax= 1.27D-04

 Cycle  13  Pass 1  IDiag  1:
 RMSU=  5.37D-07    CP:  1.00D+00  1.18D+00  1.16D+00
 E= -305.890480757713     Delta-E=       -0.000000046378 Rises=F Damp=F
 DIIS: error= 6.39D-06 at cycle   4 NSaved=   4.
 NSaved= 4 IEnMin= 4 EnMin= -305.890480757713     IErMin= 4 ErrMin= 6.39D-06
 ErrMax= 6.39D-06  0.00D+00 EMaxC= 1.00D-01 BMatC= 1.65D-08 BMatP= 1.07D-07
 IDIUse=1 WtCom= 1.00D+00 WtEn= 0.00D+00
 Coeff-Com: -0.104D-01-0.239D+00-0.117D+00 0.137D+01
 Coeff:     -0.104D-01-0.239D+00-0.117D+00 0.137D+01
 Gap=     0.346 Goal=   None    Shift=    0.000
 Gap=     0.276 Goal=   None    Shift=    0.000
 RMSDP=8.56D-07 MaxDP=3.17D-05 DE=-4.64D-08 OVMax= 2.26D-04

 Cycle  14  Pass 1  IDiag  1:
 RMSU=  2.63D-07    CP:  1.00D+00  1.24D+00  1.75D+00  1.84D+00
 E= -305.890480792235     Delta-E=       -0.000000034522 Rises=F Damp=F
 DIIS: error= 2.90D-06 at cycle   5 NSaved=   5.
 NSaved= 5 IEnMin= 5 EnMin= -305.890480792235     IErMin= 5 ErrMin= 2.90D-06
 ErrMax= 2.90D-06  0.00D+00 EMaxC= 1.00D-01 BMatC= 1.27D-08 BMatP= 1.65D-08
 IDIUse=1 WtCom= 1.00D+00 WtEn= 0.00D+00
 Coeff-Com:  0.293D-01-0.438D+00-0.432D+00 0.993D+00 0.848D+00
 Coeff:      0.293D-01-0.438D+00-0.432D+00 0.993D+00 0.848D+00
 Gap=     0.346 Goal=   None    Shift=    0.000
 Gap=     0.276 Goal=   None    Shift=    0.000
 RMSDP=7.26D-07 MaxDP=3.23D-05 DE=-3.45D-08 OVMax= 1.91D-04

 Cycle  15  Pass 1  IDiag  1:
 RMSU=  1.51D-07    CP:  1.00D+00  1.28D+00  2.24D+00  2.67D+00  1.37D+00
 E= -305.890480806353     Delta-E=       -0.000000014118 Rises=F Damp=F
 DIIS: error= 8.85D-07 at cycle   6 NSaved=   6.
 NSaved= 6 IEnMin= 6 EnMin= -305.890480806353     IErMin= 6 ErrMin= 8.85D-07
 ErrMax= 8.85D-07  0.00D+00 EMaxC= 1.00D-01 BMatC= 1.00D-09 BMatP= 1.27D-08
 IDIUse=1 WtCom= 1.00D+00 WtEn= 0.00D+00
 Coeff-Com:  0.120D-01-0.130D+00-0.146D+00 0.191D+00 0.310D+00 0.762D+00
 Coeff:      0.120D-01-0.130D+00-0.146D+00 0.191D+00 0.310D+00 0.762D+00
 Gap=     0.346 Goal=   None    Shift=    0.000
 Gap=     0.276 Goal=   None    Shift=    0.000
 RMSDP=1.51D-07 MaxDP=6.25D-06 DE=-1.41D-08 OVMax= 3.89D-05

 Cycle  16  Pass 1  IDiag  1:
 RMSU=  5.13D-08    CP:  1.00D+00  1.29D+00  2.33D+00  2.83D+00  1.57D+00
                    CP:  1.20D+00
 E= -305.890480807117     Delta-E=       -0.000000000764 Rises=F Damp=F
 DIIS: error= 4.66D-07 at cycle   7 NSaved=   7.
 NSaved= 7 IEnMin= 7 EnMin= -305.890480807117     IErMin= 7 ErrMin= 4.66D-07
 ErrMax= 4.66D-07  0.00D+00 EMaxC= 1.00D-01 BMatC= 2.68D-10 BMatP= 1.00D-09
 IDIUse=1 WtCom= 1.00D+00 WtEn= 0.00D+00
 Coeff-Com: -0.253D-02 0.668D-01 0.578D-01-0.203D+00-0.992D-01 0.361D+00
 Coeff-Com:  0.819D+00
 Coeff:     -0.253D-02 0.668D-01 0.578D-01-0.203D+00-0.992D-01 0.361D+00
 Coeff:      0.819D+00
 Gap=     0.346 Goal=   None    Shift=    0.000
 Gap=     0.276 Goal=   None    Shift=    0.000
 RMSDP=7.20D-08 MaxDP=3.15D-06 DE=-7.64D-10 OVMax= 1.87D-05

 Cycle  17  Pass 1  IDiag  1:
 RMSU=  2.11D-08    CP:  1.00D+00  1.29D+00  2.36D+00  2.90D+00  1.70D+00
                    CP:  1.40D+00  1.03D+00
 E= -305.890480807263     Delta-E=       -0.000000000146 Rises=F Damp=F
 DIIS: error= 9.36D-08 at cycle   8 NSaved=   8.
 NSaved= 8 IEnMin= 8 EnMin= -305.890480807263     IErMin= 8 ErrMin= 9.36D-08
 ErrMax= 9.36D-08  0.00D+00 EMaxC= 1.00D-01 BMatC= 1.48D-11 BMatP= 2.68D-10
 IDIUse=1 WtCom= 1.00D+00 WtEn= 0.00D+00
 Coeff-Com: -0.160D-02 0.225D-01 0.227D-01-0.450D-01-0.450D-01-0.487D-01
 Coeff-Com:  0.113D+00 0.982D+00
 Coeff:     -0.160D-02 0.225D-01 0.227D-01-0.450D-01-0.450D-01-0.487D-01
 Coeff:      0.113D+00 0.982D+00
 Gap=     0.346 Goal=   None    Shift=    0.000
 Gap=     0.276 Goal=   None    Shift=    0.000
 RMSDP=1.65D-08 MaxDP=7.20D-07 DE=-1.46D-10 OVMax= 3.41D-06

 Cycle  18  Pass 1  IDiag  1:
 RMSU=  5.92D-09    CP:  1.00D+00  1.29D+00  2.37D+00  2.90D+00  1.73D+00
                    CP:  1.45D+00  1.18D+00  1.32D+00
 E= -305.890480807271     Delta-E=       -0.000000000008 Rises=F Damp=F
 DIIS: error= 3.82D-08 at cycle   9 NSaved=   9.
 NSaved= 9 IEnMin= 9 EnMin= -305.890480807271     IErMin= 9 ErrMin= 3.82D-08
 ErrMax= 3.82D-08  0.00D+00 EMaxC= 1.00D-01 BMatC= 2.20D-12 BMatP= 1.48D-11
 IDIUse=1 WtCom= 1.00D+00 WtEn= 0.00D+00
 Coeff-Com:  0.767D-04-0.535D-02-0.397D-02 0.206D-01 0.581D-02-0.655D-01
 Coeff-Com: -0.858D-01 0.203D+00 0.931D+00
 Coeff:      0.767D-04-0.535D-02-0.397D-02 0.206D-01 0.581D-02-0.655D-01
 Coeff:     -0.858D-01 0.203D+00 0.931D+00
 Gap=     0.346 Goal=   None    Shift=    0.000
 Gap=     0.276 Goal=   None    Shift=    0.000
 RMSDP=5.26D-09 MaxDP=2.39D-07 DE=-7.96D-12 OVMax= 9.31D-07

 SCF Done:  E(UM062X) =  -305.890480807     A.U. after   18 cycles
            NFock= 18  Conv=0.53D-08     -V/T= 2.0050
 <Sx>= 0.0000 <Sy>= 0.0000 <Sz>= 0.5000 <S**2>= 0.7599 S= 0.5049
 <L.S>= 0.000000000000E+00
 KE= 3.043580885711D+02 PE=-1.095257651203D+03 EE= 2.970577498069D+02
 Annihilation of the first spin contaminant:
 S**2 before annihilation     0.7599,   after     0.7500
 Leave Link  502 at Thu May 30 06:40:24 2019, MaxMem=   671088640 cpu:            1454.2 elap:              72.8
 (Enter /shared/centos7/gaussian/g16/l801.exe)
 DoSCS=F DFT=T ScalE2(SS,OS)=  1.000000  1.000000
 Range of M.O.s used for correlation:     1   248
 NBasis=   248 NAE=    22 NBE=    21 NFC=     0 NFV=     0
 NROrb=    248 NOA=    22 NOB=    21 NVA=   226 NVB=   227
 Leave Link  801 at Thu May 30 06:40:24 2019, MaxMem=   671088640 cpu:               0.5 elap:               0.0
 (Enter /shared/centos7/gaussian/g16/l1101.exe)
 Using compressed storage, NAtomX=    12.
 Will process     13 centers per pass.
 Leave Link 1101 at Thu May 30 06:40:24 2019, MaxMem=   671088640 cpu:              11.9 elap:               0.6
 (Enter /shared/centos7/gaussian/g16/l1102.exe)
 Symmetrizing basis deriv contribution to polar:
 IMax=3 JMax=2 DiffMx= 0.00D+00
 Leave Link 1102 at Thu May 30 06:40:25 2019, MaxMem=   671088640 cpu:               3.1 elap:               0.2
 (Enter /shared/centos7/gaussian/g16/l1110.exe)
 Forming Gx(P) for the SCF density, NAtomX=    12.
 Integral derivatives from FoFJK, PRISM(SPDF).
 Do as many integral derivatives as possible in FoFJK.
 G2DrvN: MDV=     671087640.
 G2DrvN: will do    13 centers at a time, making    1 passes.
 Calling FoFCou, ICntrl=  3107 FMM=F I1Cent=   0 AccDes= 0.00D+00.
 FoFJK:  IHMeth= 1 ICntrl=    3107 DoSepK=F KAlg= 0 I1Cent=           0 FoldK=F
 IRaf=         0 NMat=       1 IRICut=       1 DoRegI=T DoRafI=F ISym2E= 0 IDoP0=0 IntGTp=1.
 FoFCou: FMM=F IPFlag=           0 FMFlag=      100000 FMFlg1=           0
         NFxFlg=           0 DoJE=F BraDBF=F KetDBF=F FulRan=T
         wScrn=  0.000000 ICntrl=      3107 IOpCl=  1 I1Cent=           0 NGrid=           0
         NMat0=    1 NMatS0=      1 NMatT0=    0 NMatD0=    1 NMtDS0=    0 NMtDT0=    0
 Symmetry not used in FoFCou.
 End of G2Drv F.D. properties file   721 does not exist.
 End of G2Drv F.D. properties file   722 does not exist.
 End of G2Drv F.D. properties file   788 does not exist.
 Leave Link 1110 at Thu May 30 06:42:28 2019, MaxMem=   671088640 cpu:            2472.2 elap:             123.6
 (Enter /shared/centos7/gaussian/g16/l1002.exe)
 Minotr:  UHF open shell wavefunction.
          IDoAtm=111111111111
          Direct CPHF calculation.
          Differentiating once with respect to nuclear coordinates.
          Requested convergence is 1.0D-08 RMS, and 1.0D-07 maximum.
          Secondary convergence is 1.0D-12 RMS, and 1.0D-12 maximum.
          NewPWx=T KeepS1=F KeepF1=F KeepIn=T MapXYZ=F SortEE=F KeepMc=T.
         3584 words used for storage of precomputed grid.
 Two-electron integrals replicated using symmetry.
          MDV=     671088640 using IRadAn=       1.
          Solving linear equations simultaneously, MaxMat=     380.
 FoF2E skips out because all densities are zero.
 CalDSu exits because no D1Ps are significant.
 FoFJK:  IHMeth= 1 ICntrl=       0 DoSepK=F KAlg= 0 I1Cent=           0 FoldK=F
 IRaf= 960000000 NMat=      36 IRICut=      90 DoRegI=T DoRafI=T ISym2E= 2 IDoP0=3 IntGTp=3.
 FoFCou: FMM=F IPFlag=           0 FMFlag=      100000 FMFlg1=           0
         NFxFlg=           0 DoJE=F BraDBF=F KetDBF=F FulRan=T
         wScrn=  0.000000 ICntrl=         0 IOpCl=  1 I1Cent=           0 NGrid=           0
         NMat0=   36 NMatS0=     36 NMatT0=    0 NMatD0=   36 NMtDS0=    0 NMtDT0=    0
 Integrals replicated using symmetry in FoFCou.
 Raff kept on since  94.60% of shell-pairs survive, threshold=   0.20 IRatSp=95.
          There are    39 degrees of freedom in the 1st order CPHF.  IDoFFX=6 NUNeed=     0.
     33 vectors produced by pass  0 Test12= 2.50D-14 2.56D-09 XBig12= 1.42D-01 1.40D-01.
 AX will form    33 AO Fock derivatives at one time.
     33 vectors produced by pass  1 Test12= 2.50D-14 2.56D-09 XBig12= 1.33D-02 3.08D-02.
     33 vectors produced by pass  2 Test12= 2.50D-14 2.56D-09 XBig12= 8.77D-04 5.68D-03.
     33 vectors produced by pass  3 Test12= 2.50D-14 2.56D-09 XBig12= 2.18D-05 6.68D-04.
     33 vectors produced by pass  4 Test12= 2.50D-14 2.56D-09 XBig12= 3.12D-07 8.07D-05.
     33 vectors produced by pass  5 Test12= 2.50D-14 2.56D-09 XBig12= 4.39D-09 8.51D-06.
     33 vectors produced by pass  6 Test12= 2.50D-14 2.56D-09 XBig12= 4.75D-11 9.16D-07.
     17 vectors produced by pass  7 Test12= 2.50D-14 2.56D-09 XBig12= 4.45D-13 8.48D-08.
      3 vectors produced by pass  8 Test12= 2.50D-14 2.56D-09 XBig12= 3.36D-15 4.97D-09.
 InvSVY:  IOpt=1 It=  1 EMax= 1.22D-15
 Solved reduced A of dimension   251 with    33 vectors.
 End of Minotr F.D. properties file   721 does not exist.
 End of Minotr F.D. properties file   722 does not exist.
 End of Minotr F.D. properties file   788 does not exist.
 Leave Link 1002 at Thu May 30 06:46:12 2019, MaxMem=   671088640 cpu:            4464.8 elap:             223.3
 (Enter /shared/centos7/gaussian/g16/l601.exe)
 Copying SCF densities to generalized density rwf, IOpCl= 1 IROHF=0.

 **********************************************************************

            Population analysis using the SCF density.

 **********************************************************************

 Orbital symmetries:
 Alpha Orbitals:
       Occupied  (A) (A) (A) (A) (A) (A) (A) (A) (A) (A) (A) (A)
                 (A) (A) (A) (A) (A) (A) (A) (A) (A) (A)
       Virtual   (A) (A) (A) (A) (A) (A) (A) (A) (A) (A) (A) (A)
                 (A) (A) (A) (A) (A) (A) (A) (A) (A) (A) (A) (A)
                 (A) (A) (A) (A) (A) (A) (A) (A) (A) (A) (A) (A)
                 (A) (A) (A) (A) (A) (A) (A) (A) (A) (A) (A) (A)
                 (A) (A) (A) (A) (A) (A) (A) (A) (A) (A) (A) (A)
                 (A) (A) (A) (A) (A) (A) (A) (A) (A) (A) (A) (A)
                 (A) (A) (A) (A) (A) (A) (A) (A) (A) (A) (A) (A)
                 (A) (A) (A) (A) (A) (A) (A) (A) (A) (A) (A) (A)
                 (A) (A) (A) (A) (A) (A) (A) (A) (A) (A) (A) (A)
                 (A) (A) (A) (A) (A) (A) (A) (A) (A) (A) (A) (A)
                 (A) (A) (A) (A) (A) (A) (A) (A) (A) (A) (A) (A)
                 (A) (A) (A) (A) (A) (A) (A) (A) (A) (A) (A) (A)
                 (A) (A) (A) (A) (A) (A) (A) (A) (A) (A) (A) (A)
                 (A) (A) (A) (A) (A) (A) (A) (A) (A) (A) (A) (A)
                 (A) (A) (A) (A) (A) (A) (A) (A) (A) (A) (A) (A)
                 (A) (A) (A) (A) (A) (A) (A) (A) (A) (A) (A) (A)
                 (A) (A) (A) (A) (A) (A) (A) (A) (A) (A) (A) (A)
                 (A) (A) (A) (A) (A) (A) (A) (A) (A) (A) (A) (A)
                 (A) (A) (A) (A) (A) (A) (A) (A) (A) (A)
 Beta  Orbitals:
       Occupied  (A) (A) (A) (A) (A) (A) (A) (A) (A) (A) (A) (A)
                 (A) (A) (A) (A) (A) (A) (A) (A) (A)
       Virtual   (A) (A) (A) (A) (A) (A) (A) (A) (A) (A) (A) (A)
                 (A) (A) (A) (A) (A) (A) (A) (A) (A) (A) (A) (A)
                 (A) (A) (A) (A) (A) (A) (A) (A) (A) (A) (A) (A)
                 (A) (A) (A) (A) (A) (A) (A) (A) (A) (A) (A) (A)
                 (A) (A) (A) (A) (A) (A) (A) (A) (A) (A) (A) (A)
                 (A) (A) (A) (A) (A) (A) (A) (A) (A) (A) (A) (A)
                 (A) (A) (A) (A) (A) (A) (A) (A) (A) (A) (A) (A)
                 (A) (A) (A) (A) (A) (A) (A) (A) (A) (A) (A) (A)
                 (A) (A) (A) (A) (A) (A) (A) (A) (A) (A) (A) (A)
                 (A) (A) (A) (A) (A) (A) (A) (A) (A) (A) (A) (A)
                 (A) (A) (A) (A) (A) (A) (A) (A) (A) (A) (A) (A)
                 (A) (A) (A) (A) (A) (A) (A) (A) (A) (A) (A) (A)
                 (A) (A) (A) (A) (A) (A) (A) (A) (A) (A) (A) (A)
                 (A) (A) (A) (A) (A) (A) (A) (A) (A) (A) (A) (A)
                 (A) (A) (A) (A) (A) (A) (A) (A) (A) (A) (A) (A)
                 (A) (A) (A) (A) (A) (A) (A) (A) (A) (A) (A) (A)
                 (A) (A) (A) (A) (A) (A) (A) (A) (A) (A) (A) (A)
                 (A) (A) (A) (A) (A) (A) (A) (A) (A) (A) (A) (A)
                 (A) (A) (A) (A) (A) (A) (A) (A) (A) (A) (A)
 The electronic state is 2-A.
 Alpha  occ. eigenvalues --  -19.69338 -19.68906 -19.62448 -10.59308 -10.55952
 Alpha  occ. eigenvalues --   -1.27421  -1.15182  -0.99557  -0.86249  -0.72430
 Alpha  occ. eigenvalues --   -0.62815  -0.60296  -0.57678  -0.54456  -0.52406
 Alpha  occ. eigenvalues --   -0.52112  -0.46173  -0.41867  -0.40969  -0.37829
 Alpha  occ. eigenvalues --   -0.36598  -0.29533
 Alpha virt. eigenvalues --    0.05115   0.06524   0.10328   0.11112   0.13011
 Alpha virt. eigenvalues --    0.15088   0.15981   0.19330   0.22351   0.23610
 Alpha virt. eigenvalues --    0.27763   0.32261   0.35785   0.38249   0.40461
 Alpha virt. eigenvalues --    0.42903   0.44257   0.45110   0.46807   0.47935
 Alpha virt. eigenvalues --    0.48546   0.49164   0.50893   0.54966   0.56524
 Alpha virt. eigenvalues --    0.57702   0.59880   0.60492   0.62729   0.67418
 Alpha virt. eigenvalues --    0.69318   0.70522   0.72350   0.74430   0.75999
 Alpha virt. eigenvalues --    0.77436   0.81720   0.84849   0.85873   0.92169
 Alpha virt. eigenvalues --    0.93221   0.94721   0.98317   1.00449   1.02919
 Alpha virt. eigenvalues --    1.07203   1.08576   1.10415   1.12235   1.14686
 Alpha virt. eigenvalues --    1.17117   1.19240   1.21273   1.23641   1.24233
 Alpha virt. eigenvalues --    1.29297   1.34001   1.35015   1.35288   1.37210
 Alpha virt. eigenvalues --    1.38728   1.42030   1.43223   1.50634   1.51197
 Alpha virt. eigenvalues --    1.56924   1.57455   1.58971   1.62233   1.71583
 Alpha virt. eigenvalues --    1.80044   1.89503   1.91849   1.92133   1.98335
 Alpha virt. eigenvalues --    1.99514   2.02714   2.09802   2.10567   2.14356
 Alpha virt. eigenvalues --    2.17822   2.21225   2.28939   2.32286   2.35364
 Alpha virt. eigenvalues --    2.37304   2.42079   2.45057   2.50594   2.54258
 Alpha virt. eigenvalues --    2.57942   2.61709   2.67965   2.68298   2.74026
 Alpha virt. eigenvalues --    2.79630   2.83525   2.85792   2.87574   2.92789
 Alpha virt. eigenvalues --    2.93750   2.95559   2.97394   3.00609   3.01327
 Alpha virt. eigenvalues --    3.06580   3.08065   3.12134   3.16060   3.18380
 Alpha virt. eigenvalues --    3.18939   3.22924   3.24834   3.27287   3.28510
 Alpha virt. eigenvalues --    3.30201   3.32107   3.36954   3.40809   3.42591
 Alpha virt. eigenvalues --    3.44257   3.46144   3.47488   3.48908   3.51745
 Alpha virt. eigenvalues --    3.55389   3.58354   3.61392   3.64776   3.67660
 Alpha virt. eigenvalues --    3.70457   3.72672   3.74017   3.77105   3.79012
 Alpha virt. eigenvalues --    3.80959   3.83298   3.85162   3.86043   3.87804
 Alpha virt. eigenvalues --    3.88242   3.91017   3.94714   3.95988   3.98939
 Alpha virt. eigenvalues --    4.00531   4.03277   4.04702   4.08368   4.09889
 Alpha virt. eigenvalues --    4.10721   4.16348   4.19301   4.21728   4.22538
 Alpha virt. eigenvalues --    4.22837   4.28288   4.35590   4.36132   4.40649
 Alpha virt. eigenvalues --    4.43181   4.45596   4.48006   4.64064   4.68221
 Alpha virt. eigenvalues --    4.70569   4.75725   4.77050   4.80451   4.84908
 Alpha virt. eigenvalues --    4.85664   4.88605   4.92178   4.93789   5.00085
 Alpha virt. eigenvalues --    5.01385   5.02322   5.08290   5.11501   5.14512
 Alpha virt. eigenvalues --    5.17538   5.23004   5.25313   5.32559   5.36319
 Alpha virt. eigenvalues --    5.41591   5.45120   5.54912   5.57205   5.73810
 Alpha virt. eigenvalues --    5.75701   5.76970   5.83744   5.94987   5.97094
 Alpha virt. eigenvalues --    6.09362   6.18756   6.19331   6.32687   6.35973
 Alpha virt. eigenvalues --    6.37722   6.46167   6.48071   6.54875   6.57407
 Alpha virt. eigenvalues --    6.62218   6.64417   6.69194   6.69816   6.71583
 Alpha virt. eigenvalues --    6.74496   6.84009   6.86770   6.88554   6.96266
 Alpha virt. eigenvalues --    7.12905   7.13559   7.18963   7.38346   7.43974
 Alpha virt. eigenvalues --    7.58741   9.90470  11.21890  11.79798  12.07537
 Alpha virt. eigenvalues --   12.82540
  Beta  occ. eigenvalues --  -19.69200 -19.67956 -19.62451 -10.59330 -10.55411
  Beta  occ. eigenvalues --   -1.25796  -1.15154  -0.97184  -0.84756  -0.71182
  Beta  occ. eigenvalues --   -0.61229  -0.58755  -0.56014  -0.53668  -0.51439
  Beta  occ. eigenvalues --   -0.49777  -0.45524  -0.41084  -0.38262  -0.36189
  Beta  occ. eigenvalues --   -0.35206
  Beta virt. eigenvalues --   -0.07631   0.05250   0.06553   0.10397   0.10983
  Beta virt. eigenvalues --    0.13415   0.15362   0.16222   0.19415   0.23020
  Beta virt. eigenvalues --    0.23965   0.28032   0.32425   0.35951   0.38330
  Beta virt. eigenvalues --    0.40828   0.43087   0.44715   0.46110   0.47409
  Beta virt. eigenvalues --    0.48700   0.49221   0.50060   0.51588   0.55248
  Beta virt. eigenvalues --    0.56782   0.58659   0.59944   0.60664   0.63340
  Beta virt. eigenvalues --    0.67734   0.69416   0.70804   0.72567   0.74843
  Beta virt. eigenvalues --    0.76185   0.77496   0.81813   0.84905   0.86151
  Beta virt. eigenvalues --    0.92540   0.93509   0.94899   0.98478   1.00655
  Beta virt. eigenvalues --    1.03094   1.07469   1.08784   1.10419   1.12357
  Beta virt. eigenvalues --    1.15253   1.17660   1.20040   1.21637   1.23861
  Beta virt. eigenvalues --    1.24565   1.29597   1.34076   1.35819   1.35894
  Beta virt. eigenvalues --    1.37430   1.38811   1.42436   1.43469   1.50759
  Beta virt. eigenvalues --    1.51590   1.57672   1.58476   1.59531   1.62750
  Beta virt. eigenvalues --    1.72904   1.80856   1.89695   1.92245   1.92727
  Beta virt. eigenvalues --    1.98527   1.99698   2.03174   2.10297   2.11071
  Beta virt. eigenvalues --    2.14744   2.18268   2.21539   2.29691   2.32906
  Beta virt. eigenvalues --    2.36144   2.38032   2.42898   2.45383   2.51301
  Beta virt. eigenvalues --    2.55733   2.57782   2.62988   2.69121   2.70021
  Beta virt. eigenvalues --    2.74843   2.80416   2.84513   2.86835   2.89910
  Beta virt. eigenvalues --    2.93831   2.94784   2.96664   2.97897   3.02597
  Beta virt. eigenvalues --    3.02694   3.08112   3.09384   3.12622   3.17691
  Beta virt. eigenvalues --    3.18993   3.20330   3.23891   3.25884   3.28182
  Beta virt. eigenvalues --    3.28946   3.30653   3.32617   3.37585   3.41468
  Beta virt. eigenvalues --    3.43703   3.45001   3.46602   3.47913   3.49399
  Beta virt. eigenvalues --    3.51923   3.55659   3.58532   3.62171   3.65512
  Beta virt. eigenvalues --    3.68013   3.70920   3.72899   3.74186   3.77901
  Beta virt. eigenvalues --    3.79440   3.81460   3.83769   3.85712   3.86488
  Beta virt. eigenvalues --    3.88210   3.88798   3.91261   3.94963   3.96016
  Beta virt. eigenvalues --    3.99265   4.01160   4.03426   4.05233   4.08606
  Beta virt. eigenvalues --    4.10341   4.11325   4.16613   4.19774   4.22254
  Beta virt. eigenvalues --    4.23053   4.23582   4.28834   4.35772   4.37000
  Beta virt. eigenvalues --    4.41406   4.44146   4.47019   4.49123   4.64524
  Beta virt. eigenvalues --    4.68596   4.71181   4.76950   4.77872   4.81125
  Beta virt. eigenvalues --    4.85769   4.86884   4.89468   4.92845   4.94789
  Beta virt. eigenvalues --    5.01262   5.02599   5.03155   5.09405   5.12271
  Beta virt. eigenvalues --    5.16337   5.18258   5.23523   5.27248   5.33970
  Beta virt. eigenvalues --    5.37105   5.42936   5.48353   5.55480   5.57823
  Beta virt. eigenvalues --    5.74113   5.77259   5.80212   5.84902   5.95285
  Beta virt. eigenvalues --    5.97420   6.10283   6.18889   6.20840   6.33438
  Beta virt. eigenvalues --    6.36553   6.37865   6.46659   6.48435   6.56056
  Beta virt. eigenvalues --    6.59340   6.63443   6.64484   6.69409   6.70938
  Beta virt. eigenvalues --    6.71988   6.75037   6.84223   6.87640   6.89211
  Beta virt. eigenvalues --    6.96336   7.13023   7.13660   7.19813   7.38368
  Beta virt. eigenvalues --    7.44204   7.59051   9.91243  11.22056  11.79905
  Beta virt. eigenvalues --   12.08362  12.83292
          Condensed to atoms (all electrons):
               1          2          3          4          5          6
     1  O    7.856032   0.000073  -0.000098   0.322340  -0.053268  -0.048732
     2  O    0.000073   7.895162   0.055756  -0.019903   0.012520  -0.000474
     3  O   -0.000098   0.055756   8.084738   0.009395  -0.094883  -0.000088
     4  C    0.322340  -0.019903   0.009395   4.759959   0.293910   0.394229
     5  C   -0.053268   0.012520  -0.094883   0.293910   5.401564  -0.060907
     6  H   -0.048732  -0.000474  -0.000088   0.394229  -0.060907   0.696267
     7  H   -0.028632   0.023358  -0.003939   0.393049  -0.044494  -0.065811
     8  H    0.007175  -0.035197   0.198217  -0.010662   0.216705   0.006746
     9  H   -0.002562   0.001594   0.001059  -0.029587   0.375764  -0.006652
    10  H    0.005839   0.002423  -0.004414  -0.045221   0.359613   0.004035
    11  H    0.317796  -0.000026  -0.000023  -0.037776  -0.007346  -0.011147
    12  H   -0.000025   0.304385  -0.030302   0.000587  -0.004138  -0.000164
               7          8          9         10         11         12
     1  O   -0.028632   0.007175  -0.002562   0.005839   0.317796  -0.000025
     2  O    0.023358  -0.035197   0.001594   0.002423  -0.000026   0.304385
     3  O   -0.003939   0.198217   0.001059  -0.004414  -0.000023  -0.030302
     4  C    0.393049  -0.010662  -0.029587  -0.045221  -0.037776   0.000587
     5  C   -0.044494   0.216705   0.375764   0.359613  -0.007346  -0.004138
     6  H   -0.065811   0.006746  -0.006652   0.004035  -0.011147  -0.000164
     7  H    0.590530  -0.011573   0.007644  -0.003623   0.009430  -0.001159
     8  H   -0.011573   0.399633  -0.014218  -0.005681  -0.001170   0.001549
     9  H    0.007644  -0.014218   0.555025  -0.024060   0.005355   0.000109
    10  H   -0.003623  -0.005681  -0.024060   0.567433  -0.000110   0.002301
    11  H    0.009430  -0.001170   0.005355  -0.000110   0.485075   0.000008
    12  H   -0.001159   0.001549   0.000109   0.002301   0.000008   0.458786
          Atomic-Atomic Spin Densities.
               1          2          3          4          5          6
     1  O   -0.002929   0.000006  -0.000151   0.004001   0.001419  -0.001036
     2  O    0.000006   0.061697  -0.042294  -0.003326   0.019460   0.000664
     3  O   -0.000151  -0.042294   0.556006   0.010312  -0.115499  -0.001044
     4  C    0.004001  -0.003326   0.010312  -0.023686  -0.045274   0.005759
     5  C    0.001419   0.019460  -0.115499  -0.045274   0.764599  -0.017034
     6  H   -0.001036   0.000664  -0.001044   0.005759  -0.017034   0.066147
     7  H    0.000042  -0.003529   0.002940   0.010763  -0.010534  -0.008350
     8  H    0.000051   0.008505  -0.032961  -0.006672   0.062821   0.000546
     9  H    0.000012  -0.000418   0.002925   0.006214  -0.006109  -0.002045
    10  H   -0.000190  -0.001364   0.002769   0.005468  -0.006235  -0.001031
    11  H   -0.000384  -0.000003   0.000037   0.000489  -0.000267  -0.000855
    12  H    0.000001   0.001079  -0.001074   0.000042  -0.000355   0.000010
               7          8          9         10         11         12
     1  O    0.000042   0.000051   0.000012  -0.000190  -0.000384   0.000001
     2  O   -0.003529   0.008505  -0.000418  -0.001364  -0.000003   0.001079
     3  O    0.002940  -0.032961   0.002925   0.002769   0.000037  -0.001074
     4  C    0.010763  -0.006672   0.006214   0.005468   0.000489   0.000042
     5  C   -0.010534   0.062821  -0.006109  -0.006235  -0.000267  -0.000355
     6  H   -0.008350   0.000546  -0.002045  -0.001031  -0.000855   0.000010
     7  H    0.021184  -0.000004   0.000211   0.000367   0.000244  -0.000037
     8  H   -0.000004  -0.060625   0.000421   0.001142  -0.000103   0.000141
     9  H    0.000211   0.000421  -0.031898   0.002959   0.000073  -0.000008
    10  H    0.000367   0.001142   0.002959  -0.037167   0.000018  -0.000076
    11  H    0.000244  -0.000103   0.000073   0.000018   0.001052  -0.000000
    12  H   -0.000037   0.000141  -0.000008  -0.000076  -0.000000  -0.001676
 Mulliken charges and spin densities:
               1          2
     1  O   -0.375937   0.000842
     2  O   -0.239671   0.040477
     3  O   -0.215419   0.381966
     4  C   -0.030320  -0.035910
     5  C   -0.395038   0.646992
     6  H    0.092699   0.041731
     7  H    0.135221   0.013297
     8  H    0.248476  -0.026739
     9  H    0.130528  -0.027663
    10  H    0.141465  -0.033340
    11  H    0.239934   0.000300
    12  H    0.268062  -0.001953
 Sum of Mulliken charges =  -0.00000   1.00000
 Mulliken charges and spin densities with hydrogens summed into heavy atoms:
               1          2
     1  O   -0.136003   0.001143
     2  O    0.028391   0.038524
     3  O    0.033058   0.355227
     4  C    0.197600   0.019117
     5  C   -0.123045   0.585989
 APT charges:
               1
     1  O   -0.647586
     2  O   -0.537222
     3  O   -0.162052
     4  C   -0.571421
     5  C   -0.727726
     6  H    0.371601
     7  H    0.253027
     8  H    0.167066
     9  H    0.374879
    10  H    0.321353
    11  H    0.595581
    12  H    0.562501
 Sum of APT charges =  -0.00000
 APT charges with hydrogens summed into heavy atoms:
               1
     1  O   -0.052005
     2  O    0.025278
     3  O    0.005014
     4  C    0.053207
     5  C   -0.031494
 Electronic spatial extent (au):  <R**2>=            583.3348
 Charge=             -0.0000 electrons
 Dipole moment (field-independent basis, Debye):
    X=             -0.7556    Y=              2.7326    Z=              2.1909  Tot=              3.5830
 Quadrupole moment (field-independent basis, Debye-Ang):
   XX=            -28.0270   YY=            -32.7451   ZZ=            -30.0264
   XY=             -2.2790   XZ=              4.5176   YZ=             -1.0695
 Traceless Quadrupole moment (field-independent basis, Debye-Ang):
   XX=              2.2391   YY=             -2.4789   ZZ=              0.2398
   XY=             -2.2790   XZ=              4.5176   YZ=             -1.0695
 Octapole moment (field-independent basis, Debye-Ang**2):
  XXX=              4.0941  YYY=             -2.1799  ZZZ=             -0.0677  XYY=              2.0554
  XXY=             10.2382  XXZ=              6.9256  XZZ=              2.7926  YZZ=              0.0606
  YYZ=             -0.6736  XYZ=              3.9688
 Hexadecapole moment (field-independent basis, Debye-Ang**3):
 XXXX=           -409.4105 YYYY=           -122.2782 ZZZZ=            -92.5860 XXXY=            -14.7870
 XXXZ=             43.6712 YYYX=             -0.9545 YYYZ=             -2.7500 ZZZX=             11.1889
 ZZZY=             -1.5994 XXYY=           -109.1254 XXZZ=            -81.3043 YYZZ=            -35.4328
 XXYZ=             -3.3153 YYXZ=              1.7264 ZZXY=             -1.0161
 N-N= 1.879513320179D+02 E-N=-1.095257653671D+03  KE= 3.043580885711D+02
  Exact polarizability:   0.000   0.000   0.000   0.000   0.000   0.000
 Approx polarizability:  61.296  -7.716  48.765  -0.888  -1.839  50.113
                          Isotropic Fermi Contact Couplings
        Atom                 a.u.       MegaHertz       Gauss      10(-4) cm-1
     1  O(17)             -0.00074       0.44746       0.15966       0.14926
     2  O(17)              0.00118      -0.71778      -0.25612      -0.23943
     3  O(17)              0.10014     -60.70434     -21.66082     -20.24879
     4  C(13)             -0.01356     -15.23888      -5.43761      -5.08314
     5  C(13)              0.18566     208.71858      74.47598      69.62102
     6  H(1)               0.02061      92.11448      32.86874      30.72608
     7  H(1)               0.00841      37.59645      13.41535      12.54082
     8  H(1)              -0.03137    -140.22649     -50.03630     -46.77452
     9  H(1)              -0.00367     -16.42146      -5.85959      -5.47761
    10  H(1)              -0.00839     -37.50091     -13.38126     -12.50896
    11  H(1)               0.00001       0.02516       0.00898       0.00839
    12  H(1)              -0.00107      -4.78040      -1.70577      -1.59457
 --------------------------------------------------------
       Center         ----  Spin Dipole Couplings  ----
                      3XX-RR        3YY-RR        3ZZ-RR
 --------------------------------------------------------
     1   Atom       -0.003743     -0.003419      0.007163
     2   Atom        0.237313     -0.076900     -0.160413
     3   Atom        1.190779     -0.635754     -0.555026
     4   Atom        0.027150     -0.014105     -0.013044
     5   Atom        0.153665     -0.217704      0.064040
     6   Atom        0.000479     -0.003435      0.002956
     7   Atom       -0.005399      0.010428     -0.005029
     8   Atom        0.136474     -0.074608     -0.061865
     9   Atom       -0.009997      0.004981      0.005016
    10   Atom        0.005940     -0.026207      0.020266
    11   Atom        0.005920     -0.003653     -0.002267
    12   Atom        0.001481     -0.008708      0.007227
 --------------------------------------------------------
                        XY            XZ            YZ
 --------------------------------------------------------
     1   Atom        0.003420      0.006090      0.006142
     2   Atom       -0.186941     -0.097021      0.091611
     3   Atom       -0.836504     -0.937007      0.345659
     4   Atom        0.005957     -0.019115     -0.001738
     5   Atom       -0.264683     -0.455919      0.238882
     6   Atom        0.004310     -0.009050     -0.000661
     7   Atom        0.002085     -0.002605     -0.008824
     8   Atom       -0.105531     -0.081052      0.040039
     9   Atom       -0.037814      0.006475     -0.029876
    10   Atom        0.007335      0.022139      0.034759
    11   Atom        0.003773      0.003783      0.001761
    12   Atom       -0.001613      0.013931      0.004271
 --------------------------------------------------------


 ---------------------------------------------------------------------------------
              Anisotropic Spin Dipole Couplings in Principal Axis System
 ---------------------------------------------------------------------------------

       Atom             a.u.   MegaHertz   Gauss  10(-4) cm-1        Axes

              Baa    -0.0070     0.508     0.181     0.169  0.7659 -0.6409 -0.0513
     1 O(17)  Bbb    -0.0059     0.425     0.152     0.142  0.5140  0.6583 -0.5500
              Bcc     0.0129    -0.933    -0.333    -0.311  0.3863  0.3948  0.8336
 
              Baa    -0.2209    15.985     5.704     5.332 -0.0803 -0.6071  0.7905
     2 O(17)  Bbb    -0.1348     9.751     3.479     3.253  0.4835  0.6698  0.5635
              Bcc     0.3557   -25.736    -9.183    -8.585  0.8717 -0.4275 -0.2397
 
              Baa    -0.9757    70.599    25.191    23.549  0.5014  0.5970  0.6263
     3 O(17)  Bbb    -0.9434    68.262    24.357    22.770 -0.0143  0.7295 -0.6839
              Bcc     1.9190  -138.860   -49.549   -46.319  0.8651 -0.3339 -0.3743
 
              Baa    -0.0207    -2.784    -0.993    -0.928  0.3795 -0.0997  0.9198
     4 C(13)  Bbb    -0.0148    -1.988    -0.709    -0.663 -0.0769  0.9873  0.1388
              Bcc     0.0356     4.771     1.703     1.592  0.9220  0.1234 -0.3670
 
              Baa    -0.3556   -47.717   -17.027   -15.917  0.3425  0.9266 -0.1553
     5 C(13)  Bbb    -0.3492   -46.856   -16.720   -15.630  0.6363 -0.1071  0.7640
              Bcc     0.7048    94.574    33.746    31.546  0.6912 -0.3605 -0.6263
 
              Baa    -0.0090    -4.801    -1.713    -1.601  0.7085 -0.4884  0.5094
     6 H(1)   Bbb    -0.0026    -1.394    -0.497    -0.465  0.2350  0.8439  0.4822
              Bcc     0.0116     6.195     2.210     2.066 -0.6654 -0.2219  0.7127
 
              Baa    -0.0096    -5.134    -1.832    -1.713  0.3646  0.3430  0.8657
     7 H(1)   Bbb    -0.0052    -2.799    -0.999    -0.933  0.9197 -0.2783 -0.2770
              Bcc     0.0149     7.933     2.831     2.646  0.1459  0.8971 -0.4169
 
              Baa    -0.1195   -63.754   -22.749   -21.266  0.3214  0.9272 -0.1921
     8 H(1)   Bbb    -0.0906   -48.352   -17.253   -16.128  0.3628  0.0668  0.9295
              Bcc     0.2101   112.106    40.002    37.395  0.8747 -0.3685 -0.3149
 
              Baa    -0.0457   -24.399    -8.706    -8.139  0.6621  0.6797  0.3157
     9 H(1)   Bbb    -0.0066    -3.547    -1.266    -1.183 -0.5728  0.1874  0.7980
              Bcc     0.0524    27.946     9.972     9.322 -0.4832  0.7092 -0.5134
 
              Baa    -0.0451   -24.080    -8.592    -8.032  0.0882  0.8669 -0.4906
    10 H(1)   Bbb    -0.0056    -2.965    -1.058    -0.989  0.8845 -0.2946 -0.3617
              Bcc     0.0507    27.045     9.650     9.021  0.4581  0.4021  0.7928
 
              Baa    -0.0051    -2.714    -0.969    -0.905 -0.2219  0.9326 -0.2846
    11 H(1)   Bbb    -0.0037    -1.975    -0.705    -0.659 -0.4183  0.1726  0.8918
              Bcc     0.0088     4.689     1.673     1.564  0.8808  0.3169  0.3518
 
              Baa    -0.0134    -7.123    -2.542    -2.376  0.5509  0.6606 -0.5100
    12 H(1)   Bbb    -0.0054    -2.893    -1.032    -0.965 -0.5583  0.7459  0.3631
              Bcc     0.0188    10.016     3.574     3.341  0.6203  0.0848  0.7798
 

 ---------------------------------------------------------------------------------

 No NMR shielding tensors so no spin-rotation constants.
 Leave Link  601 at Thu May 30 07:45:31 2019, MaxMem=   671088640 cpu:              11.2 elap:               0.6
 (Enter /shared/centos7/gaussian/g16/l701.exe)
 ... and contract with generalized density number  0.
 Compute integral second derivatives.
 Leave Link  701 at Thu May 30 07:45:32 2019, MaxMem=   671088640 cpu:               9.1 elap:               0.5
 (Enter /shared/centos7/gaussian/g16/l702.exe)
 L702 exits ... SP integral derivatives will be done elsewhere.
 Leave Link  702 at Thu May 30 07:45:32 2019, MaxMem=   671088640 cpu:               0.7 elap:               0.1
 (Enter /shared/centos7/gaussian/g16/l703.exe)
 Integral derivatives from FoFJK, PRISM(SPDF).
 Compute integral second derivatives, UseDBF=F ICtDFT=           0.
 Calling FoFJK, ICntrl=    100147 FMM=F ISym2X=0 I1Cent= 0 IOpClX= 1 NMat=1 NMatS=1 NMatT=0.
 FoFJK:  IHMeth= 1 ICntrl=  100147 DoSepK=F KAlg= 0 I1Cent=           0 FoldK=F
 IRaf=         0 NMat=       1 IRICut=       1 DoRegI=T DoRafI=F ISym2E= 0 IDoP0=0 IntGTp=1.
 FoFCou: FMM=F IPFlag=           0 FMFlag=      100000 FMFlg1=         800
         NFxFlg=           0 DoJE=F BraDBF=F KetDBF=F FulRan=T
         wScrn=  0.000000 ICntrl=    100147 IOpCl=  1 I1Cent=           0 NGrid=           0
         NMat0=    1 NMatS0=      1 NMatT0=    0 NMatD0=    1 NMtDS0=    0 NMtDT0=    0
 Symmetry not used in FoFCou.
 Leave Link  703 at Thu May 30 07:47:45 2019, MaxMem=   671088640 cpu:            2660.4 elap:             133.1
 (Enter /shared/centos7/gaussian/g16/l716.exe)
 Dipole        =-2.97263609D-01 1.07507113D+00 8.61959128D-01
 Polarizability= 0.00000000D+00 0.00000000D+00 0.00000000D+00
                 0.00000000D+00 0.00000000D+00 0.00000000D+00
 ***** Axes restored to original set *****
 -------------------------------------------------------------------
 Center     Atomic                   Forces (Hartrees/Bohr)
 Number     Number              X              Y              Z
 -------------------------------------------------------------------
      1        8          -0.000148233    0.000454224    0.000021117
      2        8           0.000257954    0.000053547    0.000325395
      3        8           0.001602743   -0.002381687   -0.008946462
      4        6          -0.000249221    0.000332236   -0.000427103
      5        6          -0.007758821    0.001268265   -0.002742275
      6        1           0.000064291    0.000057951   -0.000066999
      7        1           0.000037134   -0.000141460    0.000184171
      8        1           0.006052394    0.000745650    0.012036467
      9        1           0.000001504    0.000242351   -0.000077237
     10        1           0.000119120    0.000139200    0.000047583
     11        1           0.000131605   -0.000561777   -0.000012407
     12        1          -0.000110468   -0.000208500   -0.000342250
 -------------------------------------------------------------------
 Cartesian Forces:  Max     0.012036467 RMS     0.003078171
 Force constants in Cartesian coordinates: 
                1             2             3             4             5 
      1  0.356109D+00
      2 -0.185548D+00  0.421394D+00
      3  0.228325D+00 -0.151032D-01  0.279894D+00
      4 -0.127315D-02  0.362222D-04 -0.651944D-03  0.218918D+00
      5  0.459925D-03  0.955311D-03  0.644559D-03  0.145755D+00  0.361451D+00
      6  0.181228D-03 -0.170434D-02 -0.642973D-03  0.216981D+00  0.319437D-01
      7 -0.323202D-03  0.542460D-03 -0.361584D-03 -0.538850D-01 -0.110085D-02
      8  0.167618D-03 -0.615502D-03 -0.648883D-03  0.194859D-01 -0.115399D+00
      9  0.351314D-03  0.195361D-02  0.236389D-02 -0.403947D-01  0.101203D+00
     10 -0.125377D+00 -0.438180D-02 -0.778038D-01  0.759464D-03  0.239166D-03
     11 -0.360705D-01 -0.109717D+00 -0.643265D-01 -0.383614D-03 -0.220957D-02
     12 -0.896684D-01 -0.322105D-01 -0.173428D+00 -0.710852D-03 -0.202130D-02
     13 -0.201623D-01 -0.244994D-01 -0.532828D-02 -0.296685D-02 -0.689122D-02
     14 -0.133820D-01 -0.134868D-01 -0.386600D-02  0.389431D-02  0.100607D-02
     15 -0.280130D-01 -0.321154D-01 -0.152217D-02 -0.210898D-02  0.144619D-01
     16  0.116836D-01 -0.927219D-02 -0.248958D-01 -0.209948D-03  0.420310D-03
     17  0.116198D-02 -0.236866D-02 -0.165785D-01  0.573470D-03  0.119004D-02
     18  0.118039D-02 -0.130482D-01 -0.333355D-01  0.251572D-03  0.523088D-04
     19 -0.166136D-01  0.125903D-01 -0.125535D-01 -0.189540D-02 -0.142971D-04
     20 -0.102052D-01  0.127471D-01 -0.533664D-02  0.151522D-02  0.473237D-03
     21 -0.247898D-01  0.204314D-01 -0.147367D-01 -0.291273D-04 -0.131471D-03
     22  0.195635D-02 -0.354315D-03 -0.206593D-02  0.170409D-02  0.220332D-01
     23  0.548634D-03  0.274244D-03  0.389985D-03  0.170109D-01 -0.213084D-01
     24 -0.996802D-03 -0.245048D-03 -0.487217D-03 -0.231216D-01 -0.277833D-03
     25  0.230490D-02  0.145934D-02  0.152296D-02 -0.137980D-02  0.273934D-02
     26  0.998322D-03  0.343332D-02 -0.159827D-02  0.124772D-04 -0.188008D-03
     27  0.176200D-02 -0.122556D-02  0.919161D-03  0.777244D-03 -0.283259D-02
     28 -0.235962D-02 -0.497275D-02  0.700381D-03  0.688345D-03 -0.469728D-03
     29 -0.549823D-02 -0.446006D-02 -0.188777D-03 -0.745539D-03  0.626171D-04
     30  0.114830D-02  0.213180D-02  0.143364D-02 -0.488160D-03 -0.394922D-04
     31 -0.206559D+00  0.214027D+00 -0.107365D+00  0.141565D-03 -0.462952D-03
     32  0.247560D+00 -0.308016D+00  0.106633D+00 -0.524447D-04 -0.244823D-03
     33 -0.894887D-01  0.710878D-01 -0.604217D-01 -0.107433D-03 -0.209703D-03
     34  0.614221D-03  0.373141D-03  0.477642D-03 -0.160602D+00 -0.162708D+00
     35 -0.192811D-03 -0.140329D-03 -0.211219D-04 -0.187102D+00 -0.225788D+00
     36  0.834766D-05  0.475649D-04 -0.365462D-04 -0.150397D+00 -0.142793D+00
                6             7             8             9            10 
      6  0.389500D+00
      7 -0.155122D-01  0.117499D+00
      8  0.134011D+00 -0.191692D-01  0.105957D+00
      9 -0.207622D+00 -0.144506D-01 -0.124861D+00  0.283380D+00
     10 -0.336849D-02  0.563047D-02 -0.377981D-02  0.366906D-02  0.536286D+00
     11  0.622141D-02 -0.192819D-02  0.448749D-02 -0.678590D-02 -0.687944D-01
     12  0.565508D-02 -0.634282D-02  0.621700D-02 -0.773978D-02  0.107351D-01
     13  0.199400D-01 -0.975392D-01  0.486520D-01 -0.696425D-02 -0.109908D+00
     14 -0.103950D-01  0.490513D-01 -0.201162D-01  0.218973D-02 -0.705937D-01
     15 -0.251166D-01  0.864131D-01 -0.490388D-01  0.175997D-01  0.137365D-01
     16 -0.997578D-03  0.762814D-03 -0.664105D-03  0.840678D-03 -0.136463D+00
     17 -0.299221D-02  0.145844D-02 -0.236544D-02  0.348695D-02  0.314181D-01
     18 -0.133274D-03  0.561797D-03 -0.612188D-03  0.598592D-03  0.106500D+00
     19  0.471012D-03  0.159032D-03  0.512322D-03  0.102151D-03 -0.137988D+00
     20 -0.202566D-02 -0.182777D-03 -0.669339D-03  0.162353D-02  0.125111D+00
     21 -0.848584D-04 -0.226394D-03 -0.575237D-04 -0.395173D-03 -0.347035D-01
     22 -0.450000D-01  0.209252D-01 -0.443217D-01  0.492422D-01 -0.193294D-01
     23  0.247789D-01 -0.484399D-01  0.149758D-01 -0.801639D-02 -0.273811D-02
     24  0.868220D-02 -0.161776D-01  0.294832D-01 -0.430508D-01  0.817014D-02
     25 -0.271609D-02  0.410438D-02 -0.391982D-02  0.325623D-02  0.111033D-01
     26  0.882834D-03 -0.670308D-03  0.823615D-03 -0.156175D-02  0.146539D-01
     27  0.494759D-02 -0.705278D-02  0.554767D-02 -0.429659D-02 -0.811218D-02
     28 -0.121882D-02  0.330336D-02 -0.893092D-04  0.438271D-02 -0.625817D-02
     29  0.187815D-02 -0.182799D-02  0.148629D-02 -0.182301D-02 -0.794332D-02
     30  0.301566D-02 -0.309067D-02  0.290831D-02 -0.273229D-02  0.598255D-02
     31  0.854962D-03 -0.567195D-03  0.576953D-03 -0.787353D-03 -0.176856D-01
     32  0.473887D-03 -0.177705D-03  0.257555D-03 -0.392359D-03 -0.136669D-01
     33  0.310903D-03  0.533895D-05  0.224914D-03 -0.535553D-03 -0.252052D-01
     34 -0.169615D+00 -0.695357D-04  0.254916D-02  0.752478D-03 -0.770546D-03
     35 -0.183073D+00  0.224448D-01  0.111774D-01  0.329837D-01  0.475586D-03
     36 -0.178512D+00 -0.237656D-01 -0.317440D-02 -0.375703D-01  0.399433D-03
               11            12            13            14            15 
     11  0.538233D+00
     12 -0.181363D-01  0.519566D+00
     13 -0.532999D-01  0.424775D-02  0.388011D+00
     14 -0.158138D+00  0.426794D-01  0.584024D-01  0.485376D+00
     15  0.460398D-01 -0.805838D-01  0.204224D+00 -0.796807D-01  0.417380D+00
     16  0.383828D-01  0.112819D+00 -0.108896D-01  0.345883D-03  0.135750D-01
     17 -0.573132D-01 -0.347602D-01 -0.165368D-01  0.819094D-03  0.193129D-01
     18 -0.413271D-01 -0.181755D+00  0.120656D-01  0.267306D-02 -0.748928D-02
     19  0.115965D+00 -0.405598D-01  0.137313D-01 -0.131817D-01  0.610227D-02
     20 -0.207383D+00  0.541337D-01  0.126133D-01 -0.216727D-01  0.887062D-02
     21  0.430268D-01 -0.629699D-01 -0.206476D-02  0.109037D-01 -0.327921D-02
     22  0.516625D-02  0.236778D-01  0.702835D-01 -0.415084D-01 -0.847594D-01
     23 -0.680040D-03  0.136831D-02 -0.322470D-01 -0.418768D-02  0.313901D-01
     24 -0.154022D-03 -0.720578D-02 -0.135800D-01  0.477798D-02 -0.102486D-01
     25 -0.160088D-01  0.904034D-02 -0.104350D+00  0.897743D-01 -0.861225D-01
     26 -0.138037D-01  0.121626D-01  0.855157D-01 -0.185181D+00  0.111363D+00
     27  0.734972D-02 -0.346907D-02 -0.783978D-01  0.102645D+00 -0.112483D+00
     28 -0.191522D-02 -0.154664D-01 -0.124353D+00 -0.635458D-01 -0.124610D+00
     29 -0.161100D-02 -0.203384D-01 -0.690634D-01 -0.882429D-01 -0.711664D-01
     30  0.297102D-02  0.774775D-02 -0.133938D+00 -0.723416D-01 -0.198565D+00
     31  0.192343D-01 -0.767299D-02 -0.251584D-03  0.185063D-02  0.168481D-02
     32  0.855245D-02 -0.840906D-02 -0.182550D-02  0.273919D-02 -0.209420D-02
     33  0.257194D-01 -0.154160D-01  0.572500D-03 -0.762506D-03  0.199773D-02
     34 -0.347349D-03 -0.985402D-04 -0.160663D-02 -0.110713D-02 -0.122103D-03
     35 -0.417445D-03 -0.685328D-03 -0.820338D-03  0.108420D-02  0.265718D-02
     36 -0.598313D-03 -0.401587D-03 -0.776605D-03  0.117702D-02  0.231071D-02
               16            17            18            19            20 
     16  0.145299D+00
     17 -0.312694D-01  0.638713D-01
     18 -0.116589D+00  0.492683D-01  0.214106D+00
     19 -0.109454D-01  0.162675D-01 -0.298738D-02  0.156228D+00
     20  0.424014D-02 -0.459849D-02  0.137183D-02 -0.126964D+00  0.223242D+00
     21  0.147493D-01 -0.190649D-01  0.670805D-02  0.503544D-01 -0.560743D-01
     22 -0.176818D-02 -0.478637D-02 -0.178766D-02  0.304500D-03  0.601737D-03
     23 -0.107480D-02  0.107389D-03  0.155382D-02 -0.702840D-03 -0.409489D-03
     24  0.582515D-03  0.141238D-02  0.552376D-03  0.246597D-03  0.215502D-04
     25  0.272721D-03  0.108471D-02 -0.249183D-03 -0.227491D-02 -0.307323D-02
     26 -0.539011D-03 -0.238630D-03  0.625613D-04 -0.319600D-02 -0.300557D-02
     27 -0.150458D-03 -0.791600D-03  0.166642D-03  0.227461D-02  0.364107D-03
     28  0.451935D-03  0.812370D-03  0.219676D-03  0.196144D-03 -0.677876D-03
[...]
 Alpha virt. eigenvalues --    3.44419   3.46361   3.48110   3.48618   3.51876
 Alpha virt. eigenvalues --    3.55677   3.58450   3.59756   3.64683   3.66989
 Alpha virt. eigenvalues --    3.68778   3.71884   3.73917   3.75605   3.79214
 Alpha virt. eigenvalues --    3.81071   3.81557   3.84045   3.86848   3.87943
 Alpha virt. eigenvalues --    3.90067   3.91902   3.93812   3.95664   3.99391
 Alpha virt. eigenvalues --    4.01575   4.02751   4.04558   4.06382   4.10052
 Alpha virt. eigenvalues --    4.11339   4.17608   4.20240   4.21096   4.21704
 Alpha virt. eigenvalues --    4.23510   4.28674   4.36122   4.39228   4.39652
 Alpha virt. eigenvalues --    4.43508   4.45718   4.48083   4.63812   4.68221
 Alpha virt. eigenvalues --    4.70209   4.76517   4.78549   4.79704   4.84909
 Alpha virt. eigenvalues --    4.86579   4.88124   4.90978   4.96187   5.00380
 Alpha virt. eigenvalues --    5.01915   5.04701   5.08409   5.12192   5.15388
 Alpha virt. eigenvalues --    5.15727   5.22733   5.28763   5.35569   5.38380
 Alpha virt. eigenvalues --    5.42296   5.49200   5.56025   5.59695   5.74063
 Alpha virt. eigenvalues --    5.75031   5.79947   5.86586   5.92906   5.97537
 Alpha virt. eigenvalues --    6.07688   6.15678   6.19144   6.34496   6.36169
 Alpha virt. eigenvalues --    6.38162   6.47372   6.48568   6.56155   6.59104
 Alpha virt. eigenvalues --    6.62119   6.64678   6.69490   6.71031   6.72326
 Alpha virt. eigenvalues --    6.75041   6.83856   6.87632   6.89805   6.95577
 Alpha virt. eigenvalues --    7.13100   7.15248   7.18079   7.38543   7.44791
 Alpha virt. eigenvalues --    7.60561   9.90531  11.23736  11.76039  12.13563
 Alpha virt. eigenvalues --   12.87552
  Beta  occ. eigenvalues --  -19.69200 -19.68103 -19.62410 -10.59352 -10.55404
  Beta  occ. eigenvalues --   -1.25975  -1.15114  -0.97059  -0.84938  -0.71402
  Beta  occ. eigenvalues --   -0.61465  -0.58712  -0.56018  -0.53374  -0.51407
  Beta  occ. eigenvalues --   -0.50105  -0.45677  -0.41166  -0.37704  -0.36345
  Beta  occ. eigenvalues --   -0.35483
  Beta virt. eigenvalues --   -0.08170   0.05197   0.06551   0.10435   0.11032
  Beta virt. eigenvalues --    0.13556   0.15494   0.16274   0.19401   0.23442
  Beta virt. eigenvalues --    0.25198   0.27927   0.32339   0.35993   0.38279
  Beta virt. eigenvalues --    0.40036   0.43076   0.44656   0.46332   0.47754
  Beta virt. eigenvalues --    0.48837   0.49210   0.50577   0.51954   0.55562
  Beta virt. eigenvalues --    0.56031   0.58353   0.60026   0.60772   0.63754
  Beta virt. eigenvalues --    0.66774   0.69390   0.71063   0.72580   0.75014
  Beta virt. eigenvalues --    0.76379   0.77678   0.82192   0.85166   0.86436
  Beta virt. eigenvalues --    0.91379   0.92855   0.94765   0.98075   1.00497
  Beta virt. eigenvalues --    1.03639   1.07331   1.08990   1.10642   1.11855
  Beta virt. eigenvalues --    1.14410   1.17586   1.19251   1.21037   1.23960
  Beta virt. eigenvalues --    1.25140   1.29623   1.33977   1.36012   1.36921
  Beta virt. eigenvalues --    1.37813   1.39074   1.42616   1.44417   1.51265
  Beta virt. eigenvalues --    1.53414   1.57119   1.58778   1.60639   1.63709
  Beta virt. eigenvalues --    1.74100   1.79825   1.89995   1.92273   1.94963
  Beta virt. eigenvalues --    1.98742   2.00095   2.03118   2.10466   2.11516
  Beta virt. eigenvalues --    2.15871   2.18145   2.21848   2.28120   2.32979
  Beta virt. eigenvalues --    2.35787   2.39453   2.42878   2.45840   2.49732
  Beta virt. eigenvalues --    2.55977   2.56649   2.63415   2.68521   2.70064
  Beta virt. eigenvalues --    2.74989   2.80551   2.85719   2.88331   2.90476
  Beta virt. eigenvalues --    2.92692   2.94339   2.97331   2.97670   3.02340
  Beta virt. eigenvalues --    3.02486   3.08769   3.10435   3.12440   3.16574
  Beta virt. eigenvalues --    3.18713   3.22105   3.24647   3.25801   3.26881
  Beta virt. eigenvalues --    3.29187   3.32019   3.32994   3.37679   3.42065
  Beta virt. eigenvalues --    3.43466   3.45061   3.46662   3.48680   3.49070
  Beta virt. eigenvalues --    3.52032   3.55940   3.58633   3.60432   3.65397
  Beta virt. eigenvalues --    3.67390   3.69280   3.72084   3.74226   3.76165
  Beta virt. eigenvalues --    3.79690   3.81459   3.81761   3.84756   3.87250
  Beta virt. eigenvalues --    3.88502   3.90387   3.92230   3.94079   3.95568
  Beta virt. eigenvalues --    3.99817   4.02107   4.02783   4.05087   4.06735
  Beta virt. eigenvalues --    4.10613   4.11852   4.17779   4.20943   4.21728
  Beta virt. eigenvalues --    4.22081   4.23949   4.29278   4.36335   4.39988
  Beta virt. eigenvalues --    4.40211   4.44638   4.47006   4.49521   4.64324
  Beta virt. eigenvalues --    4.68583   4.70772   4.77787   4.79340   4.80469
  Beta virt. eigenvalues --    4.85806   4.87026   4.89248   4.91983   4.97068
  Beta virt. eigenvalues --    5.01781   5.03135   5.04919   5.09141   5.13052
  Beta virt. eigenvalues --    5.15970   5.17107   5.23290   5.30227   5.36922
  Beta virt. eigenvalues --    5.40447   5.43891   5.52470   5.56222   5.60787
  Beta virt. eigenvalues --    5.74348   5.78068   5.81586   5.87843   5.93173
  Beta virt. eigenvalues --    5.97843   6.08727   6.16863   6.19220   6.34975
  Beta virt. eigenvalues --    6.36688   6.38565   6.47450   6.49150   6.57577
  Beta virt. eigenvalues --    6.60580   6.63386   6.64703   6.69521   6.71414
  Beta virt. eigenvalues --    6.72962   6.76675   6.84013   6.87841   6.91294
  Beta virt. eigenvalues --    6.95668   7.13158   7.15387   7.19034   7.38565
  Beta virt. eigenvalues --    7.45070   7.60757   9.91384  11.23931  11.76113
  Beta virt. eigenvalues --   12.14244  12.88313
          Condensed to atoms (all electrons):
               1          2          3          4          5          6
     1  O    7.853590   0.000099  -0.000136   0.324269  -0.053172  -0.049473
     2  O    0.000099   7.900365   0.057721  -0.020535   0.012814  -0.000562
     3  O   -0.000136   0.057721   8.070170   0.010222  -0.092526  -0.000027
     4  C    0.324269  -0.020535   0.010222   4.753630   0.292588   0.393882
     5  C   -0.053172   0.012814  -0.092526   0.292588   5.400610  -0.061750
     6  H   -0.049473  -0.000562  -0.000027   0.393882  -0.061750   0.700584
     7  H   -0.028272   0.023690  -0.004439   0.392650  -0.042985  -0.066329
     8  H    0.006414  -0.039906   0.198555  -0.010812   0.225908   0.006476
     9  H   -0.002762   0.001669   0.000856  -0.028642   0.378735  -0.006520
    10  H    0.005931   0.003088  -0.003611  -0.044787   0.352427   0.003868
    11  H    0.317798  -0.000024  -0.000019  -0.036711  -0.007967  -0.011355
    12  H   -0.000028   0.302824  -0.031194   0.000696  -0.003629  -0.000117
               7          8          9         10         11         12
     1  O   -0.028272   0.006414  -0.002762   0.005931   0.317798  -0.000028
     2  O    0.023690  -0.039906   0.001669   0.003088  -0.000024   0.302824
     3  O   -0.004439   0.198555   0.000856  -0.003611  -0.000019  -0.031194
     4  C    0.392650  -0.010812  -0.028642  -0.044787  -0.036711   0.000696
     5  C   -0.042985   0.225908   0.378735   0.352427  -0.007967  -0.003629
     6  H   -0.066329   0.006476  -0.006520   0.003868  -0.011355  -0.000117
     7  H    0.587331  -0.009613   0.007288  -0.003190   0.009347  -0.001434
     8  H   -0.009613   0.401353  -0.012805  -0.009879  -0.001010   0.000644
     9  H    0.007288  -0.012805   0.548407  -0.023742   0.005190   0.000076
    10  H   -0.003190  -0.009879  -0.023742   0.578861  -0.000127   0.002626
    11  H    0.009347  -0.001010   0.005190  -0.000127   0.485334   0.000009
    12  H   -0.001434   0.000644   0.000076   0.002626   0.000009   0.463226
          Atomic-Atomic Spin Densities.
               1          2          3          4          5          6
     1  O   -0.002360   0.000007  -0.000139   0.003916   0.001383  -0.001252
     2  O    0.000007   0.068616  -0.044862  -0.003551   0.019973   0.000671
     3  O   -0.000139  -0.044862   0.562175   0.009788  -0.107221  -0.000968
     4  C    0.003916  -0.003551   0.009788  -0.023708  -0.044641   0.007152
     5  C    0.001383   0.019973  -0.107221  -0.044641   0.739944  -0.017327
     6  H   -0.001252   0.000671  -0.000968   0.007152  -0.017327   0.063795
     7  H    0.000047  -0.003467   0.002703   0.010246  -0.009702  -0.007524
     8  H   -0.000054   0.010014  -0.033600  -0.005516   0.060248   0.000335
     9  H    0.000100  -0.000377   0.002256   0.004723  -0.004221  -0.001527
    10  H   -0.000188  -0.002215   0.004180   0.006088  -0.007032  -0.001648
    11  H   -0.000324  -0.000004   0.000039   0.000349  -0.000187  -0.000832
    12  H    0.000002   0.000906  -0.000915  -0.000011  -0.000080   0.000014
               7          8          9         10         11         12
     1  O    0.000047  -0.000054   0.000100  -0.000188  -0.000324   0.000002
     2  O   -0.003467   0.010014  -0.000377  -0.002215  -0.000004   0.000906
     3  O    0.002703  -0.033600   0.002256   0.004180   0.000039  -0.000915
     4  C    0.010246  -0.005516   0.004723   0.006088   0.000349  -0.000011
     5  C   -0.009702   0.060248  -0.004221  -0.007032  -0.000187  -0.000080
     6  H   -0.007524   0.000335  -0.001527  -0.001648  -0.000832   0.000014
     7  H    0.019698   0.000287   0.000075   0.000515   0.000232  -0.000042
     8  H    0.000287  -0.064403   0.001313   0.001516  -0.000078   0.000235
     9  H    0.000075   0.001313  -0.034364   0.003122   0.000044  -0.000010
    10  H    0.000515   0.001516   0.003122  -0.034141   0.000032  -0.000153
    11  H    0.000232  -0.000078   0.000044   0.000032   0.001086  -0.000000
    12  H   -0.000042   0.000235  -0.000010  -0.000153  -0.000000  -0.002026
 Mulliken charges and spin densities:
               1          2
     1  O   -0.374258   0.001136
     2  O   -0.241244   0.045712
     3  O   -0.205573   0.393437
     4  C   -0.026449  -0.035165
     5  C   -0.401052   0.631137
     6  H    0.091323   0.040889
     7  H    0.135957   0.013070
     8  H    0.244676  -0.029703
     9  H    0.132249  -0.028866
    10  H    0.138536  -0.029923
    11  H    0.239535   0.000356
    12  H    0.266302  -0.002079
 Sum of Mulliken charges =  -0.00000   1.00000
 Mulliken charges and spin densities with hydrogens summed into heavy atoms:
               1          2
     1  O   -0.134723   0.001492
     2  O    0.025058   0.043633
     3  O    0.039103   0.363734
     4  C    0.200831   0.018794
     5  C   -0.130268   0.572348
 Electronic spatial extent (au):  <R**2>=            584.7019
 Charge=             -0.0000 electrons
 Dipole moment (field-independent basis, Debye):
    X=             -0.7337    Y=              2.9695    Z=              2.0743  Tot=              3.6958
 Quadrupole moment (field-independent basis, Debye-Ang):
   XX=            -27.8463   YY=            -32.7498   ZZ=            -30.0144
   XY=             -1.8075   XZ=              4.6628   YZ=             -0.8898
 Traceless Quadrupole moment (field-independent basis, Debye-Ang):
   XX=              2.3572   YY=             -2.5463   ZZ=              0.1891
   XY=             -1.8075   XZ=              4.6628   YZ=             -0.8898
 Octapole moment (field-independent basis, Debye-Ang**2):
  XXX=              3.8544  YYY=             -2.2585  ZZZ=             -0.0352  XYY=              2.8106
  XXY=             10.8391  XXZ=              5.9164  XZZ=              2.2258  YZZ=              0.0973
  YYZ=             -0.6332  XYZ=              4.1144
 Hexadecapole moment (field-independent basis, Debye-Ang**3):
 XXXX=           -410.6521 YYYY=           -123.0709 ZZZZ=            -92.8545 XXXY=            -11.0425
 XXXZ=             44.2796 YYYX=             -0.6232 YYYZ=             -2.4929 ZZZX=             11.5225
 ZZZY=             -1.3049 XXYY=           -109.3462 XXZZ=            -80.9007 YYZZ=            -35.5540
 XXYZ=             -1.2668 YYXZ=              1.6315 ZZXY=             -0.3667
 N-N= 1.878244583329D+02 E-N=-1.094999378201D+03  KE= 3.043769681842D+02
                          Isotropic Fermi Contact Couplings
        Atom                 a.u.       MegaHertz       Gauss      10(-4) cm-1
     1  O(17)             -0.00080       0.48706       0.17379       0.16247
     2  O(17)              0.00219      -1.32900      -0.47422      -0.44331
     3  O(17)              0.09519     -57.70332     -20.58998     -19.24776
     4  C(13)             -0.01425     -16.01919      -5.71605      -5.34343
     5  C(13)              0.17208     193.44644      69.02650      64.52679
     6  H(1)               0.02051      91.65570      32.70503      30.57305
     7  H(1)               0.00836      37.38709      13.34064      12.47099
     8  H(1)              -0.03191    -142.62109     -50.89075     -47.57328
     9  H(1)              -0.00432     -19.31924      -6.89359      -6.44421
    10  H(1)              -0.00773     -34.53763     -12.32388     -11.52051
    11  H(1)               0.00003       0.12516       0.04466       0.04175
    12  H(1)              -0.00127      -5.65578      -2.01812      -1.88657
 --------------------------------------------------------
       Center         ----  Spin Dipole Couplings  ----
                      3XX-RR        3YY-RR        3ZZ-RR
 --------------------------------------------------------
     1   Atom       -0.004643     -0.002722      0.007365
     2   Atom        0.243232     -0.067422     -0.175810
     3   Atom        1.143538     -0.529019     -0.614519
     4   Atom        0.026494     -0.013792     -0.012702
     5   Atom        0.148044     -0.182682      0.034638
     6   Atom        0.000519     -0.003501      0.002982
     7   Atom       -0.005056      0.008761     -0.003705
     8   Atom        0.141652     -0.065271     -0.076382
     9   Atom       -0.009468      0.000006      0.009463
    10   Atom        0.008202     -0.021759      0.013557
    11   Atom        0.005687     -0.003280     -0.002406
    12   Atom        0.001482     -0.008074      0.006592
 --------------------------------------------------------
                        XY            XZ            YZ
 --------------------------------------------------------
     1   Atom        0.003442      0.004960      0.008144
     2   Atom       -0.205938     -0.093069      0.089206
     3   Atom       -0.975165     -0.878103      0.389330
     4   Atom        0.002920     -0.018977     -0.000576
     5   Atom       -0.288264     -0.431732      0.251934
     6   Atom        0.003663     -0.009300     -0.000255
     7   Atom        0.001716     -0.002675     -0.009465
     8   Atom       -0.124261     -0.091364      0.042342
     9   Atom       -0.036786      0.009384     -0.028964
    10   Atom        0.008851      0.021631      0.036354
    11   Atom        0.003861      0.003513      0.001798
    12   Atom        0.000167      0.014082      0.006679
 --------------------------------------------------------


 ---------------------------------------------------------------------------------
              Anisotropic Spin Dipole Couplings in Principal Axis System
 ---------------------------------------------------------------------------------

       Atom             a.u.   MegaHertz   Gauss  10(-4) cm-1        Axes

              Baa    -0.0076     0.549     0.196     0.183 -0.4742  0.8296 -0.2947
     1 O(17)  Bbb    -0.0063     0.454     0.162     0.151  0.8243  0.3009 -0.4795
              Bcc     0.0139    -1.002    -0.358    -0.334  0.3091  0.4703  0.8266
 
              Baa    -0.2277    16.477     5.879     5.496 -0.0856 -0.5662  0.8198
     2 O(17)  Bbb    -0.1459    10.554     3.766     3.521  0.4924  0.6913  0.5289
              Bcc     0.3736   -27.031    -9.645    -9.017  0.8662 -0.4489 -0.2196
 
              Baa    -0.9881    71.497    25.512    23.849  0.5232  0.5889  0.6160
     3 O(17)  Bbb    -0.9633    69.706    24.873    23.252  0.0337  0.7080 -0.7054
              Bcc     1.9514  -141.203   -50.385   -47.100  0.8516 -0.3898 -0.3506
 
              Baa    -0.0204    -2.742    -0.978    -0.915  0.3781 -0.0863  0.9217
     4 C(13)  Bbb    -0.0139    -1.868    -0.667    -0.623 -0.0236  0.9944  0.1028
              Bcc     0.0344     4.610     1.645     1.538  0.9255  0.0606 -0.3740
 
              Baa    -0.3499   -46.959   -16.756   -15.664  0.3720  0.9108 -0.1790
     5 C(13)  Bbb    -0.3440   -46.165   -16.473   -15.399  0.6219 -0.1014  0.7765
              Bcc     0.6940    93.124    33.229    31.063  0.6891 -0.4002 -0.6041
 
              Baa    -0.0089    -4.771    -1.702    -1.592  0.7083 -0.4514  0.5428
     6 H(1)   Bbb    -0.0027    -1.414    -0.505    -0.472  0.2328  0.8752  0.4241
              Bcc     0.0116     6.185     2.207     2.063 -0.6664 -0.1740  0.7250
 
              Baa    -0.0094    -5.014    -1.789    -1.673  0.3585  0.4046  0.8413
     7 H(1)   Bbb    -0.0049    -2.596    -0.926    -0.866  0.9225 -0.2917 -0.2528
              Bcc     0.0143     7.610     2.715     2.538  0.1431  0.8667 -0.4779
 
              Baa    -0.1235   -65.902   -23.515   -21.982  0.4318  0.9015  0.0272
     8 H(1)   Bbb    -0.1092   -58.252   -20.786   -19.431  0.2683 -0.1572  0.9504
              Bcc     0.2327   124.154    44.301    41.413  0.8611 -0.4031 -0.3098
 
              Baa    -0.0451   -24.064    -8.587    -8.027  0.6593  0.7052  0.2609
     9 H(1)   Bbb    -0.0065    -3.469    -1.238    -1.157 -0.5725  0.2457  0.7823
              Bcc     0.0516    27.534     9.825     9.184 -0.4875  0.6651 -0.5657
 
              Baa    -0.0449   -23.933    -8.540    -7.983  0.0851  0.8315 -0.5490
    10 H(1)   Bbb    -0.0044    -2.361    -0.842    -0.787  0.8673 -0.3331 -0.3700
              Bcc     0.0493    26.294     9.382     8.771  0.4905  0.4447  0.7495
 
              Baa    -0.0049    -2.610    -0.931    -0.871 -0.2139  0.9097 -0.3558
    11 H(1)   Bbb    -0.0036    -1.940    -0.692    -0.647 -0.4278  0.2402  0.8714
              Bcc     0.0085     4.550     1.623     1.518  0.8782  0.3386  0.3378
 
              Baa    -0.0138    -7.367    -2.629    -2.457  0.5143  0.6444 -0.5660
    12 H(1)   Bbb    -0.0056    -2.968    -1.059    -0.990 -0.6046  0.7404  0.2936
              Bcc     0.0194    10.335     3.688     3.447  0.6083  0.1912  0.7704
 

 ---------------------------------------------------------------------------------

 No NMR shielding tensors so no spin-rotation constants.
 Leave Link  601 at Thu May 30 07:52:39 2019, MaxMem=   671088640 cpu:              10.2 elap:               0.6
 (Enter /shared/centos7/gaussian/g16/l9999.exe)
 1\1\GINC-C0156\FTS\UM062X\CC-pVTZ\C2H7O3(2)\HARMS.N\30-May-2019\0\\#p 
 m062x/cc-pVTZ Opt=(ts,calcfc,noeigentest,ModRedun,maxcycles=900) scf=(
 maxcycle=900)\\Gaussian input prepared by ASE\\0,2\O,-2.0027126083,-0.
 6150671841,-0.4958081207\O,1.8641292094,-0.637038788,0.3481801889\O,1.
 6553864407,0.1291831161,-0.7866466878\C,-1.2136383273,-0.1321682658,0.
 5697030027\C,-0.3917883961,1.0623346057,0.1994611265\H,-1.8385434522,0
 .1193390156,1.4399541137\H,-0.5640156317,-0.9539768822,0.8716235088\H,
 0.6125382947,0.6054649164,-0.5632368471\H,-0.8948851807,1.8243622594,-
 0.3850936159\H,0.2316091217,1.4634856432,0.9916308672\H,-2.6011370385,
 0.082099267,-0.7759343188\H,2.3960085683,-0.0761907033,0.9268157826\\V
 ersion=EM64L-G16RevA.03\State=2-A\HF=-305.8923566\S2=0.759787\S2-1=0.\
 S2A=0.750047\RMSD=7.307e-09\RMSF=1.403e-03\Dipole=-0.2772785,1.1138081
 ,0.8926558\Quadrupole=1.7770263,-1.7810628,0.0040365,-1.5919143,3.3562
 435,-0.7970381\PG=C01 [X(C2H7O3)]\\@


 Cherishing children is the mark of a civilized society.
 -- Joan Ganz Cooney
 Job cpu time:       0 days  4 hours 43 minutes 20.5 seconds.
 Elapsed time:       0 days  0 hours 14 minutes 12.6 seconds.
 File lengths (MBytes):  RWF=   1360 Int=      0 D2E=      0 Chk=     32 Scr=     32
 Normal termination of Gaussian 16 at Thu May 30 07:52:39 2019.
