 Entering Gaussian System, Link 0=g16
 Input=/scratch/harms.n//autotst-2.0-QMScratch/ts/CCO+[O]O_OO+[CH2]CO/conformers/CCO+[O]O_OO+[CH2]CO_reverse_2.com
 Output=/scratch/harms.n//autotst-2.0-QMScratch/ts/CCO+[O]O_OO+[CH2]CO/conformers/CCO+[O]O_OO+[CH2]CO_reverse_2.log
 Initial command:
 /shared/centos7/gaussian/g16/l1.exe "/scratch/harms.n/gauss_scrdir/Gau-46709.inp" -scrdir="/scratch/harms.n/gauss_scrdir/"
 Entering Link 1 = /shared/centos7/gaussian/g16/l1.exe PID=     46710.
  
 Copyright (c) 1988,1990,1992,1993,1995,1998,2003,2009,2016,
            Gaussian, Inc.  All Rights Reserved.
  
 This is part of the Gaussian(R) 16 program.  It is based on
 the Gaussian(R) 09 system (copyright 2009, Gaussian, Inc.),
 the Gaussian(R) 03 system (copyright 2003, Gaussian, Inc.),
 the Gaussian(R) 98 system (copyright 1998, Gaussian, Inc.),
 the Gaussian(R) 94 system (copyright 1995, Gaussian, Inc.),
 the Gaussian 92(TM) system (copyright 1992, Gaussian, Inc.),
 the Gaussian 90(TM) system (copyright 1990, Gaussian, Inc.),
 the Gaussian 88(TM) system (copyright 1988, Gaussian, Inc.),
 the Gaussian 86(TM) system (copyright 1986, Carnegie Mellon
 University), and the Gaussian 82(TM) system (copyright 1983,
 Carnegie Mellon University). Gaussian is a federally registered
 trademark of Gaussian, Inc.
  
 This software contains proprietary and confidential information,
 including trade secrets, belonging to Gaussian, Inc.
  
 This software is provided under written license and may be
 used, copied, transmitted, or stored only in accord with that
 written license.
  
 The following legend is applicable only to US Government
 contracts under FAR:
  
                    RESTRICTED RIGHTS LEGEND
  
 Use, reproduction and disclosure by the US Government is
 subject to restrictions as set forth in subparagraphs (a)
 and (c) of the Commercial Computer Software - Restricted
 Rights clause in FAR 52.227-19.
  
 Gaussian, Inc.
 340 Quinnipiac St., Bldg. 40, Wallingford CT 06492
  
  
 ---------------------------------------------------------------
 Warning -- This program may not be used in any manner that
 competes with the business of Gaussian, Inc. or will provide
 assistance to any competitor of Gaussian, Inc.  The licensee
 of this program is prohibited from giving any competitor of
 Gaussian, Inc. access to this program.  By using this program,
 the user acknowledges that Gaussian, Inc. is engaged in the
 business of creating and licensing software in the field of
 computational chemistry and represents and warrants to the
 licensee that it is not a competitor of Gaussian, Inc. and that
 it will not use this program in any manner prohibited above.
 ---------------------------------------------------------------
  

 Cite this work as:
 Gaussian 16, Revision A.03,
 M. J. Frisch, G. W. Trucks, H. B. Schlegel, G. E. Scuseria, 
 M. A. Robb, J. R. Cheeseman, G. Scalmani, V. Barone, 
 G. A. Petersson, H. Nakatsuji, X. Li, M. Caricato, A. V. Marenich, 
 J. Bloino, B. G. Janesko, R. Gomperts, B. Mennucci, H. P. Hratchian, 
 J. V. Ortiz, A. F. Izmaylov, J. L. Sonnenberg, D. Williams-Young, 
 F. Ding, F. Lipparini, F. Egidi, J. Goings, B. Peng, A. Petrone, 
 T. Henderson, D. Ranasinghe, V. G. Zakrzewski, J. Gao, N. Rega, 
 G. Zheng, W. Liang, M. Hada, M. Ehara, K. Toyota, R. Fukuda, 
 J. Hasegawa, M. Ishida, T. Nakajima, Y. Honda, O. Kitao, H. Nakai, 
 T. Vreven, K. Throssell, J. A. Montgomery, Jr., J. E. Peralta, 
 F. Ogliaro, M. J. Bearpark, J. J. Heyd, E. N. Brothers, K. N. Kudin, 
 V. N. Staroverov, T. A. Keith, R. Kobayashi, J. Normand, 
 K. Raghavachari, A. P. Rendell, J. C. Burant, S. S. Iyengar, 
 J. Tomasi, M. Cossi, J. M. Millam, M. Klene, C. Adamo, R. Cammi, 
 J. W. Ochterski, R. L. Martin, K. Morokuma, O. Farkas, 
 J. B. Foresman, and D. J. Fox, Gaussian, Inc., Wallingford CT, 2016.
 
 ******************************************
 Gaussian 16:  EM64L-G16RevA.03 25-Dec-2016
                22-Jun-2019 
 ******************************************
 %nprocshared=20
 Will use up to   20 processors via shared memory.
 %mem=5GB
 ----------------------------------------------------------------------
 #p m062x/cc-pVTZ opt=(ts,calcfc,noeigentest,maxcycles=900) freq scf=(m
 axcycle=900) IOP(7/33=1,2/16=3)
 ----------------------------------------------------------------------
 1/5=1,6=900,10=4,11=1,18=20,26=3,38=1/1,3;
 2/9=110,12=2,16=3,17=6,18=5,40=1/2;
 3/5=16,6=1,11=2,25=1,30=1,71=2,74=-55,140=1/1,2,3;
 4//1;
 5/5=2,7=900,38=5/2;
 8/6=4,10=90,11=11/1;
 11/6=1,8=1,9=11,15=111,16=1/1,2,10;
 10/6=1,13=1/2;
 6/7=2,8=2,9=2,10=2,28=1/1;
 7/10=1,18=20,25=1,33=1/1,2,3,16;
 1/5=1,6=900,10=4,11=1,18=20,26=3/3(2);
 2/9=110,16=3/2;
 99//99;
 2/9=110,16=3/2;
 3/5=16,6=1,11=2,25=1,30=1,71=1,74=-55/1,2,3;
 4/5=5,16=3,69=1/1;
 5/5=2,7=900,38=5/2;
 7/33=1/1,2,3,16;
 1/5=1,6=900,11=1,18=20,26=3/3(-5);
 2/9=110,16=3/2;
 6/7=2,8=2,9=2,10=2,19=2,28=1/1;
 99/9=1/99;
 Leave Link    1 at Sat Jun 22 13:08:47 2019, MaxMem=   671088640 cpu:              15.3 elap:               0.8
 (Enter /shared/centos7/gaussian/g16/l101.exe)
 ------------------------------
 Gaussian input prepared by ASE
 ------------------------------
 Symbolic Z-matrix:
 Charge =  0 Multiplicity = 2
 O                    -0.8163   -1.18754  -0.40214 
 O                     1.61281  -0.44079   0.4758 
 O                     1.46235   0.53968  -0.41202 
 C                    -1.30507  -0.13103   0.43246 
 C                    -0.8324    1.2297   -0.02717 
 H                    -0.92316  -0.34849   1.42989 
 H                    -2.39645  -0.17921   0.47511 
 H                    -1.19552   1.45571  -1.03137 
 H                    -1.16521   2.01261   0.65499 
 H                    -0.89249  -0.90729  -1.3189 
 H                     1.00264  -1.13266   0.14172 
 H                     0.32406   1.2165   -0.07635 
 
 Add virtual bond connecting atoms H12        and O3         Dist= 2.58D+00.
 ITRead=  0  0  0  0  0  0  0  0  0  0  0  0
 MicOpt= -1 -1 -1 -1 -1 -1 -1 -1 -1 -1 -1 -1
 NAtoms=     12 NQM=       12 NQMF=       0 NMMI=      0 NMMIF=      0
                NMic=       0 NMicF=      0.
                    Isotopes and Nuclear Properties:
 (Nuclear quadrupole moments (NQMom) in fm**2, nuclear magnetic moments (NMagM)
  in nuclear magnetons)

  Atom         1           2           3           4           5           6           7           8           9          10
 IAtWgt=          16          16          16          12          12           1           1           1           1           1
 AtmWgt=  15.9949146  15.9949146  15.9949146  12.0000000  12.0000000   1.0078250   1.0078250   1.0078250   1.0078250   1.0078250
 NucSpn=           0           0           0           0           0           1           1           1           1           1
 AtZEff=  -0.0000000  -0.0000000  -0.0000000  -0.0000000  -0.0000000  -0.0000000  -0.0000000  -0.0000000  -0.0000000  -0.0000000
 NQMom=    0.0000000   0.0000000   0.0000000   0.0000000   0.0000000   0.0000000   0.0000000   0.0000000   0.0000000   0.0000000
 NMagM=    0.0000000   0.0000000   0.0000000   0.0000000   0.0000000   2.7928460   2.7928460   2.7928460   2.7928460   2.7928460
 AtZNuc=   8.0000000   8.0000000   8.0000000   6.0000000   6.0000000   1.0000000   1.0000000   1.0000000   1.0000000   1.0000000

  Atom        11          12
 IAtWgt=           1           1
 AtmWgt=   1.0078250   1.0078250
 NucSpn=           1           1
 AtZEff=  -0.0000000  -0.0000000
 NQMom=    0.0000000   0.0000000
 NMagM=    2.7928460   2.7928460
 AtZNuc=   1.0000000   1.0000000
 Leave Link  101 at Sat Jun 22 13:08:47 2019, MaxMem=   671088640 cpu:               4.9 elap:               0.3
 (Enter /shared/centos7/gaussian/g16/l103.exe)

 GradGradGradGradGradGradGradGradGradGradGradGradGradGradGradGradGradGrad
 Berny optimization.
 Initialization pass.
                           ----------------------------
                           !    Initial Parameters    !
                           ! (Angstroms and Degrees)  !
 --------------------------                            --------------------------
 ! Name  Definition              Value          Derivative Info.                !
 --------------------------------------------------------------------------------
 ! R1    R(1,4)                  1.4324         calculate D2E/DX2 analytically  !
 ! R2    R(1,10)                 0.9617         calculate D2E/DX2 analytically  !
 ! R3    R(2,3)                  1.3312         calculate D2E/DX2 analytically  !
 ! R4    R(2,11)                 0.9811         calculate D2E/DX2 analytically  !
 ! R5    R(3,12)                 1.3662         calculate D2E/DX2 analytically  !
 ! R6    R(4,5)                  1.512          calculate D2E/DX2 analytically  !
 ! R7    R(4,6)                  1.09           calculate D2E/DX2 analytically  !
 ! R8    R(4,7)                  1.0933         calculate D2E/DX2 analytically  !
 ! R9    R(5,8)                  1.0915         calculate D2E/DX2 analytically  !
 ! R10   R(5,9)                  1.0904         calculate D2E/DX2 analytically  !
 ! R11   R(5,12)                 1.1576         calculate D2E/DX2 analytically  !
 ! A1    A(4,1,10)             108.2689         calculate D2E/DX2 analytically  !
 ! A2    A(3,2,11)             102.8262         calculate D2E/DX2 analytically  !
 ! A3    A(2,3,12)             107.1684         calculate D2E/DX2 analytically  !
 ! A4    A(1,4,5)              112.3336         calculate D2E/DX2 analytically  !
 ! A5    A(1,4,6)              105.4555         calculate D2E/DX2 analytically  !
 ! A6    A(1,4,7)              109.3215         calculate D2E/DX2 analytically  !
 ! A7    A(5,4,6)              110.3763         calculate D2E/DX2 analytically  !
 ! A8    A(5,4,7)              111.32           calculate D2E/DX2 analytically  !
 ! A9    A(6,4,7)              107.7755         calculate D2E/DX2 analytically  !
 ! A10   A(4,5,8)              111.224          calculate D2E/DX2 analytically  !
 ! A11   A(4,5,9)              111.1348         calculate D2E/DX2 analytically  !
 ! A12   A(4,5,12)             108.3581         calculate D2E/DX2 analytically  !
 ! A13   A(8,5,9)              108.9865         calculate D2E/DX2 analytically  !
 ! A14   A(8,5,12)             107.1954         calculate D2E/DX2 analytically  !
 ! A15   A(9,5,12)             109.8571         calculate D2E/DX2 analytically  !
 ! A16   A(3,12,5)             148.0456         calculate D2E/DX2 analytically  !
 ! D1    D(10,1,4,5)           -42.6156         calculate D2E/DX2 analytically  !
 ! D2    D(10,1,4,6)          -162.8891         calculate D2E/DX2 analytically  !
 ! D3    D(10,1,4,7)            81.4789         calculate D2E/DX2 analytically  !
 ! D4    D(11,2,3,12)           80.6917         calculate D2E/DX2 analytically  !
 ! D5    D(2,3,12,5)           -71.8552         calculate D2E/DX2 analytically  !
 ! D6    D(1,4,5,8)             61.8054         calculate D2E/DX2 analytically  !
 ! D7    D(1,4,5,9)           -176.5726         calculate D2E/DX2 analytically  !
 ! D8    D(1,4,5,12)           -55.7769         calculate D2E/DX2 analytically  !
 ! D9    D(6,4,5,8)            179.1873         calculate D2E/DX2 analytically  !
 ! D10   D(6,4,5,9)            -59.1907         calculate D2E/DX2 analytically  !
 ! D11   D(6,4,5,12)            61.605          calculate D2E/DX2 analytically  !
 ! D12   D(7,4,5,8)            -61.1724         calculate D2E/DX2 analytically  !
 ! D13   D(7,4,5,9)             60.4496         calculate D2E/DX2 analytically  !
 ! D14   D(7,4,5,12)          -178.7547         calculate D2E/DX2 analytically  !
 ! D15   D(4,5,12,3)            41.2051         calculate D2E/DX2 analytically  !
 ! D16   D(8,5,12,3)           -78.9252         calculate D2E/DX2 analytically  !
 ! D17   D(9,5,12,3)           162.7897         calculate D2E/DX2 analytically  !
 --------------------------------------------------------------------------------
 Trust Radius=3.00D-01 FncErr=1.00D-07 GrdErr=1.00D-06 EigMax=2.50D+02 EigMin=1.00D-04
 Number of steps in this run=    100 maximum allowed number of steps=    100.
 Search for a saddle point of order  1.
 GradGradGradGradGradGradGradGradGradGradGradGradGradGradGradGradGradGrad

 Leave Link  103 at Sat Jun 22 13:08:47 2019, MaxMem=   671088640 cpu:               1.1 elap:               0.1
 (Enter /shared/centos7/gaussian/g16/l202.exe)
                          Input orientation:                          
 ---------------------------------------------------------------------
 Center     Atomic      Atomic             Coordinates (Angstroms)
 Number     Number       Type             X           Y           Z
 ---------------------------------------------------------------------
      1          8           0       -0.816296   -1.187542   -0.402138
      2          8           0        1.612812   -0.440785    0.475801
      3          8           0        1.462348    0.539683   -0.412021
      4          6           0       -1.305066   -0.131032    0.432460
      5          6           0       -0.832399    1.229696   -0.027165
      6          1           0       -0.923163   -0.348485    1.429885
      7          1           0       -2.396451   -0.179209    0.475109
      8          1           0       -1.195519    1.455707   -1.031366
      9          1           0       -1.165206    2.012611    0.654994
     10          1           0       -0.892486   -0.907292   -1.318898
     11          1           0        1.002636   -1.132662    0.141722
     12          1           0        0.324062    1.216497   -0.076347
 ---------------------------------------------------------------------
                    Distance matrix (angstroms):
                    1          2          3          4          5
     1  O    0.000000
     2  O    2.688678   0.000000
     3  O    2.859305   1.331234   0.000000
     4  C    1.432363   2.934593   2.970116   0.000000
     5  C    2.446202   3.003754   2.426952   1.512035   0.000000
     6  H    2.017857   2.711082   3.141993   1.089951   2.149858
     7  H    2.069586   4.017787   4.024194   1.093280   2.164151
     8  H    2.743447   3.708768   2.878705   2.161603   1.091493
     9  H    3.388251   3.710613   3.195634   2.159696   1.090439
    10  H    0.961662   3.116904   2.908850   1.959606   2.497779
    11  H    1.899292   0.981131   1.820633   2.532445   2.996099
    12  H    2.680664   2.170790   1.366181   2.174575   1.157582
                    6          7          8          9         10
     6  H    0.000000
     7  H    1.763754   0.000000
     8  H    3.063828   2.526787   0.000000
     9  H    2.496761   2.520396   1.776196   0.000000
    10  H    2.805176   2.451627   2.399639   3.535033   0.000000
    11  H    2.446017   3.545985   3.592725   3.854313   2.403266
    12  H    2.504690   3.106974   1.810638   1.840265   2.744886
                   11         12
    11  H    0.000000
    12  H    2.454906   0.000000
 Stoichiometry    C2H7O3(2)
 Framework group  C1[X(C2H7O3)]
 Deg. of freedom    30
 Full point group                 C1      NOp   1
 Largest Abelian subgroup         C1      NOp   1
 Largest concise Abelian subgroup C1      NOp   1
                         Standard orientation:                         
 ---------------------------------------------------------------------
 Center     Atomic      Atomic             Coordinates (Angstroms)
 Number     Number       Type             X           Y           Z
 ---------------------------------------------------------------------
      1          8           0       -0.816296   -1.187542   -0.402138
      2          8           0        1.612812   -0.440785    0.475801
      3          8           0        1.462348    0.539683   -0.412021
      4          6           0       -1.305066   -0.131032    0.432460
      5          6           0       -0.832399    1.229696   -0.027165
      6          1           0       -0.923163   -0.348485    1.429885
      7          1           0       -2.396451   -0.179209    0.475109
      8          1           0       -1.195519    1.455707   -1.031366
      9          1           0       -1.165206    2.012611    0.654994
     10          1           0       -0.892486   -0.907292   -1.318898
     11          1           0        1.002636   -1.132662    0.141722
     12          1           0        0.324062    1.216497   -0.076347
 ---------------------------------------------------------------------
 Rotational constants (GHZ):           6.7221599           3.5299108           2.7337161
 Leave Link  202 at Sat Jun 22 13:08:47 2019, MaxMem=   671088640 cpu:               0.2 elap:               0.0
 (Enter /shared/centos7/gaussian/g16/l301.exe)
 Standard basis: CC-pVTZ (5D, 7F)
 Ernie: Thresh=  0.10000D-02 Tol=  0.10000D-05 Strict=F.
 Ernie:  15 primitive shells out of 186 were deleted.
 There are   280 symmetry adapted cartesian basis functions of A   symmetry.
 There are   248 symmetry adapted basis functions of A   symmetry.
   248 basis functions,   379 primitive gaussians,   280 cartesian basis functions
    22 alpha electrons       21 beta electrons
       nuclear repulsion energy       197.8140927244 Hartrees.
 IExCor= 4336 DFT=T Ex+Corr=M062X ExCW=0 ScaHFX=  0.540000
 ScaDFX=  1.000000  1.000000  1.000000  1.000000 ScalE2=  1.000000  1.000000
 IRadAn=      5 IRanWt=     -1 IRanGd=            0 ICorTp=0 IEmpDi=  4
 NAtoms=   12 NActive=   12 NUniq=   12 SFac= 1.00D+00 NAtFMM=   60 NAOKFM=F Big=F
 Integral buffers will be    131072 words long.
 Raffenetti 2 integral format.
 Two-electron integral symmetry is turned on.
 Leave Link  301 at Sat Jun 22 13:08:47 2019, MaxMem=   671088640 cpu:               1.7 elap:               0.1
 (Enter /shared/centos7/gaussian/g16/l302.exe)
 NPDir=0 NMtPBC=     1 NCelOv=     1 NCel=       1 NClECP=     1 NCelD=      1
         NCelK=      1 NCelE2=     1 NClLst=     1 CellRange=     0.0.
 One-electron integrals computed using PRISM.
 One-electron integral symmetry used in STVInt
 NBasis=   248 RedAO= T EigKep=  7.96D-04  NBF=   248
 NBsUse=   248 1.00D-06 EigRej= -1.00D+00 NBFU=   248
 Precomputing XC quadrature grid using
 IXCGrd= 4 IRadAn=           5 IRanWt=          -1 IRanGd=           0 AccXCQ= 0.00D+00.
 Generated NRdTot=       0 NPtTot=           0 NUsed=           0 NTot=          32
 NSgBfM=   280   280   280   280   280 MxSgAt=    12 MxSgA2=    12.
 Leave Link  302 at Sat Jun 22 13:08:48 2019, MaxMem=   671088640 cpu:               4.7 elap:               0.3
 (Enter /shared/centos7/gaussian/g16/l303.exe)
 DipDrv:  MaxL=1.
 Leave Link  303 at Sat Jun 22 13:08:48 2019, MaxMem=   671088640 cpu:               1.2 elap:               0.1
 (Enter /shared/centos7/gaussian/g16/l401.exe)
 ExpMin= 1.03D-01 ExpMax= 1.53D+04 ExpMxC= 5.22D+02 IAcc=3 IRadAn=         5 AccDes= 0.00D+00
 Harris functional with IExCor= 1009 and IRadAn=       5 diagonalized for initial guess.
 HarFok:  IExCor= 1009 AccDes= 0.00D+00 IRadAn=         5 IDoV= 1 UseB2=F ITyADJ=14
 ICtDFT=  3500011 ScaDFX=  1.000000  1.000000  1.000000  1.000000
 FoFCou: FMM=F IPFlag=           0 FMFlag=      100000 FMFlg1=           0
         NFxFlg=           0 DoJE=T BraDBF=F KetDBF=T FulRan=T
         wScrn=  0.000000 ICntrl=       500 IOpCl=  0 I1Cent=   200000004 NGrid=           0
         NMat0=    1 NMatS0=      1 NMatT0=    0 NMatD0=    1 NMtDS0=    0 NMtDT0=    0
 Petite list used in FoFCou.
 Harris En= -305.790353724320    
 JPrj=0 DoOrth=F DoCkMO=F.
 Initial guess <Sx>= 0.0000 <Sy>= 0.0000 <Sz>= 0.5000 <S**2>= 0.7500 S= 0.5000
 Leave Link  401 at Sat Jun 22 13:08:48 2019, MaxMem=   671088640 cpu:              14.0 elap:               0.7
 (Enter /shared/centos7/gaussian/g16/l502.exe)
 Integral symmetry usage will be decided dynamically.
 UHF open shell SCF:
 Using DIIS extrapolation, IDIIS=  1040.
 NGot=   671088640 LenX=   670923676 LenY=   670844835
 Requested convergence on RMS density matrix=1.00D-08 within 900 cycles.
 Requested convergence on MAX density matrix=1.00D-06.
 Requested convergence on             energy=1.00D-06.
 No special actions if energy rises.
 Fock matrices will be formed incrementally for  20 cycles.
 Integral accuracy reduced to 1.0D-05 until final iterations.

 Cycle   1  Pass 0  IDiag  1:
 FoFJK:  IHMeth= 1 ICntrl=       0 DoSepK=F KAlg= 0 I1Cent=           0 FoldK=F
 IRaf= 990000000 NMat=       1 IRICut=       1 DoRegI=T DoRafI=F ISym2E= 0 IDoP0=0 IntGTp=1.
 FoFCou: FMM=F IPFlag=           0 FMFlag=      100000 FMFlg1=           0
         NFxFlg=           0 DoJE=F BraDBF=F KetDBF=F FulRan=T
         wScrn=  0.000000 ICntrl=         0 IOpCl=  1 I1Cent=           0 NGrid=           0
         NMat0=    1 NMatS0=      1 NMatT0=    0 NMatD0=    1 NMtDS0=    0 NMtDT0=    0
 Symmetry not used in FoFCou.
 E= -305.761625175661    
 DIIS: error= 1.87D-02 at cycle   1 NSaved=   1.
 NSaved= 1 IEnMin= 1 EnMin= -305.761625175661     IErMin= 1 ErrMin= 1.87D-02
 ErrMax= 1.87D-02  0.00D+00 EMaxC= 1.00D-01 BMatC= 8.26D-01 BMatP= 8.26D-01
 IDIUse=3 WtCom= 8.13D-01 WtEn= 1.87D-01
 Coeff-Com:  0.100D+01
 Coeff-En:   0.100D+01
 Coeff:      0.100D+01
 Gap=     0.414 Goal=   None    Shift=    0.000
 Gap=     0.298 Goal=   None    Shift=    0.000
 GapD=    0.298 DampG=1.000 DampE=0.500 DampFc=0.5000 IDamp=-1.
 Damping current iteration by 5.00D-01
 RMSDP=2.03D-03 MaxDP=8.89D-02              OVMax= 1.93D-01

 Cycle   2  Pass 0  IDiag  1:
 RMSU=  1.01D-03    CP:  1.00D+00
 E= -305.837118732537     Delta-E=       -0.075493556875 Rises=F Damp=T
 DIIS: error= 4.89D-03 at cycle   2 NSaved=   2.
 NSaved= 2 IEnMin= 2 EnMin= -305.837118732537     IErMin= 2 ErrMin= 4.89D-03
 ErrMax= 4.89D-03  0.00D+00 EMaxC= 1.00D-01 BMatC= 7.77D-02 BMatP= 8.26D-01
 IDIUse=3 WtCom= 9.51D-01 WtEn= 4.89D-02
 Coeff-Com: -0.111D+00 0.111D+01
 Coeff-En:   0.000D+00 0.100D+01
 Coeff:     -0.105D+00 0.111D+01
 Gap=     0.391 Goal=   None    Shift=    0.000
 Gap=     0.313 Goal=   None    Shift=    0.000
 RMSDP=5.08D-04 MaxDP=1.46D-02 DE=-7.55D-02 OVMax= 1.01D-01

 Cycle   3  Pass 0  IDiag  1:
 RMSU=  5.05D-04    CP:  1.00D+00  9.80D-01
 E= -305.909377691388     Delta-E=       -0.072258958851 Rises=F Damp=F
 DIIS: error= 3.03D-03 at cycle   3 NSaved=   3.
 NSaved= 3 IEnMin= 3 EnMin= -305.909377691388     IErMin= 3 ErrMin= 3.03D-03
 ErrMax= 3.03D-03  0.00D+00 EMaxC= 1.00D-01 BMatC= 2.13D-02 BMatP= 7.77D-02
 IDIUse=3 WtCom= 9.70D-01 WtEn= 3.03D-02
 Coeff-Com: -0.101D+00 0.377D+00 0.725D+00
 Coeff-En:   0.000D+00 0.000D+00 0.100D+01
 Coeff:     -0.981D-01 0.365D+00 0.733D+00
 Gap=     0.386 Goal=   None    Shift=    0.000
 Gap=     0.279 Goal=   None    Shift=    0.000
 RMSDP=2.06D-04 MaxDP=7.57D-03 DE=-7.23D-02 OVMax= 2.45D-02

 Cycle   4  Pass 0  IDiag  1:
 RMSU=  1.62D-04    CP:  1.00D+00  1.06D+00  8.04D-01
 E= -305.912518380838     Delta-E=       -0.003140689450 Rises=F Damp=F
 DIIS: error= 2.16D-03 at cycle   4 NSaved=   4.
 NSaved= 4 IEnMin= 4 EnMin= -305.912518380838     IErMin= 4 ErrMin= 2.16D-03
 ErrMax= 2.16D-03  0.00D+00 EMaxC= 1.00D-01 BMatC= 6.12D-03 BMatP= 2.13D-02
 IDIUse=3 WtCom= 9.78D-01 WtEn= 2.16D-02
 Coeff-Com: -0.400D-01 0.959D-01 0.389D+00 0.555D+00
 Coeff-En:   0.000D+00 0.000D+00 0.890D-01 0.911D+00
 Coeff:     -0.392D-01 0.938D-01 0.383D+00 0.563D+00
 Gap=     0.383 Goal=   None    Shift=    0.000
 Gap=     0.282 Goal=   None    Shift=    0.000
 RMSDP=8.25D-05 MaxDP=3.03D-03 DE=-3.14D-03 OVMax= 8.65D-03

 Cycle   5  Pass 0  IDiag  1:
 RMSU=  6.80D-05    CP:  1.00D+00  1.06D+00  8.70D-01  8.02D-01
 E= -305.913494233409     Delta-E=       -0.000975852570 Rises=F Damp=F
 DIIS: error= 6.35D-04 at cycle   5 NSaved=   5.
 NSaved= 5 IEnMin= 5 EnMin= -305.913494233409     IErMin= 5 ErrMin= 6.35D-04
 ErrMax= 6.35D-04  0.00D+00 EMaxC= 1.00D-01 BMatC= 4.44D-04 BMatP= 6.12D-03
 IDIUse=3 WtCom= 9.94D-01 WtEn= 6.35D-03
 Coeff-Com: -0.700D-02 0.703D-02 0.103D+00 0.231D+00 0.666D+00
 Coeff-En:   0.000D+00 0.000D+00 0.000D+00 0.000D+00 0.100D+01
 Coeff:     -0.696D-02 0.699D-02 0.103D+00 0.229D+00 0.668D+00
 Gap=     0.382 Goal=   None    Shift=    0.000
 Gap=     0.283 Goal=   None    Shift=    0.000
 RMSDP=3.38D-05 MaxDP=2.37D-03 DE=-9.76D-04 OVMax= 8.50D-03

 Cycle   6  Pass 0  IDiag  1:
 RMSU=  2.95D-05    CP:  1.00D+00  1.06D+00  8.89D-01  8.80D-01  9.30D-01
 E= -305.913635632530     Delta-E=       -0.000141399121 Rises=F Damp=F
 DIIS: error= 3.67D-04 at cycle   6 NSaved=   6.
 NSaved= 6 IEnMin= 6 EnMin= -305.913635632530     IErMin= 6 ErrMin= 3.67D-04
 ErrMax= 3.67D-04  0.00D+00 EMaxC= 1.00D-01 BMatC= 1.58D-04 BMatP= 4.44D-04
 IDIUse=3 WtCom= 9.96D-01 WtEn= 3.67D-03
 Coeff-Com:  0.776D-02-0.223D-01-0.550D-01-0.874D-01 0.287D+00 0.870D+00
 Coeff-En:   0.000D+00 0.000D+00 0.000D+00 0.000D+00 0.000D+00 0.100D+01
 Coeff:      0.773D-02-0.222D-01-0.548D-01-0.871D-01 0.286D+00 0.871D+00
 Gap=     0.384 Goal=   None    Shift=    0.000
 Gap=     0.284 Goal=   None    Shift=    0.000
 RMSDP=3.05D-05 MaxDP=1.55D-03 DE=-1.41D-04 OVMax= 6.04D-03

 Cycle   7  Pass 0  IDiag  1:
 RMSU=  1.42D-05    CP:  1.00D+00  1.06D+00  8.96D-01  9.61D-01  1.25D+00
                    CP:  1.30D+00
 E= -305.913710880405     Delta-E=       -0.000075247875 Rises=F Damp=F
 DIIS: error= 1.33D-04 at cycle   7 NSaved=   7.
 NSaved= 7 IEnMin= 7 EnMin= -305.913710880405     IErMin= 7 ErrMin= 1.33D-04
 ErrMax= 1.33D-04  0.00D+00 EMaxC= 1.00D-01 BMatC= 2.56D-05 BMatP= 1.58D-04
 IDIUse=3 WtCom= 9.99D-01 WtEn= 1.33D-03
 Coeff-Com:  0.445D-02-0.818D-02-0.422D-01-0.108D+00-0.684D-01 0.216D+00
 Coeff-Com:  0.101D+01
 Coeff-En:   0.000D+00 0.000D+00 0.000D+00 0.000D+00 0.000D+00 0.000D+00
 Coeff-En:   0.100D+01
 Coeff:      0.445D-02-0.817D-02-0.422D-01-0.108D+00-0.683D-01 0.216D+00
 Coeff:      0.101D+01
 Gap=     0.384 Goal=   None    Shift=    0.000
 Gap=     0.284 Goal=   None    Shift=    0.000
 RMSDP=2.21D-05 MaxDP=1.51D-03 DE=-7.52D-05 OVMax= 6.31D-03

 Cycle   8  Pass 0  IDiag  1:
 RMSU=  8.79D-06    CP:  1.00D+00  1.06D+00  9.00D-01  1.00D+00  1.42D+00
                    CP:  1.74D+00  1.47D+00
 E= -305.913740484284     Delta-E=       -0.000029603879 Rises=F Damp=F
 DIIS: error= 8.43D-05 at cycle   8 NSaved=   8.
 NSaved= 8 IEnMin= 8 EnMin= -305.913740484284     IErMin= 8 ErrMin= 8.43D-05
 ErrMax= 8.43D-05  0.00D+00 EMaxC= 1.00D-01 BMatC= 7.80D-06 BMatP= 2.56D-05
 IDIUse=1 WtCom= 1.00D+00 WtEn= 0.00D+00
 Coeff-Com: -0.241D-03 0.192D-02 0.959D-03-0.162D-01-0.547D-01-0.116D+00
 Coeff-Com:  0.282D+00 0.903D+00
 Coeff:     -0.241D-03 0.192D-02 0.959D-03-0.162D-01-0.547D-01-0.116D+00
 Coeff:      0.282D+00 0.903D+00
 Gap=     0.384 Goal=   None    Shift=    0.000
 Gap=     0.284 Goal=   None    Shift=    0.000
 RMSDP=1.18D-05 MaxDP=8.03D-04 DE=-2.96D-05 OVMax= 3.93D-03

 Cycle   9  Pass 0  IDiag  1:
 RMSU=  4.38D-06    CP:  1.00D+00  1.06D+00  9.03D-01  1.02D+00  1.47D+00
                    CP:  1.94D+00  1.92D+00  1.56D+00
 E= -305.913749814362     Delta-E=       -0.000009330078 Rises=F Damp=F
 DIIS: error= 6.67D-05 at cycle   9 NSaved=   9.
 NSaved= 9 IEnMin= 9 EnMin= -305.913749814362     IErMin= 9 ErrMin= 6.67D-05
 ErrMax= 6.67D-05  0.00D+00 EMaxC= 1.00D-01 BMatC= 2.90D-06 BMatP= 7.80D-06
 IDIUse=1 WtCom= 1.00D+00 WtEn= 0.00D+00
 Coeff-Com: -0.185D-02 0.380D-02 0.205D-01 0.422D-01 0.182D-01-0.154D+00
 Coeff-Com: -0.342D+00 0.306D+00 0.111D+01
 Coeff:     -0.185D-02 0.380D-02 0.205D-01 0.422D-01 0.182D-01-0.154D+00
 Coeff:     -0.342D+00 0.306D+00 0.111D+01
 Gap=     0.384 Goal=   None    Shift=    0.000
 Gap=     0.284 Goal=   None    Shift=    0.000
 RMSDP=1.25D-05 MaxDP=8.04D-04 DE=-9.33D-06 OVMax= 4.69D-03

 Cycle  10  Pass 0  IDiag  1:
 RMSU=  3.28D-06    CP:  1.00D+00  1.06D+00  9.04D-01  1.03D+00  1.52D+00
                    CP:  2.13D+00  2.36D+00  2.38D+00  1.72D+00
 E= -305.913756413706     Delta-E=       -0.000006599344 Rises=F Damp=F
 DIIS: error= 4.01D-05 at cycle  10 NSaved=  10.
 NSaved=10 IEnMin=10 EnMin= -305.913756413706     IErMin=10 ErrMin= 4.01D-05
 ErrMax= 4.01D-05  0.00D+00 EMaxC= 1.00D-01 BMatC= 9.42D-07 BMatP= 2.90D-06
 IDIUse=1 WtCom= 1.00D+00 WtEn= 0.00D+00
 Coeff-Com:  0.516D-03-0.128D-02-0.376D-02-0.463D-02 0.931D-02 0.614D-01
 Coeff-Com: -0.245D-02-0.346D+00-0.150D+00 0.144D+01
 Coeff:      0.516D-03-0.128D-02-0.376D-02-0.463D-02 0.931D-02 0.614D-01
 Coeff:     -0.245D-02-0.346D+00-0.150D+00 0.144D+01
 Gap=     0.384 Goal=   None    Shift=    0.000
 Gap=     0.284 Goal=   None    Shift=    0.000
 RMSDP=9.86D-06 MaxDP=6.28D-04 DE=-6.60D-06 OVMax= 3.74D-03

 Initial convergence to 1.0D-05 achieved.  Increase integral accuracy.
 Cycle  11  Pass 1  IDiag  1:
 E= -305.913802192124     Delta-E=       -0.000045778418 Rises=F Damp=F
 DIIS: error= 2.61D-05 at cycle   1 NSaved=   1.
 NSaved= 1 IEnMin= 1 EnMin= -305.913802192124     IErMin= 1 ErrMin= 2.61D-05
 ErrMax= 2.61D-05  0.00D+00 EMaxC= 1.00D-01 BMatC= 1.46D-06 BMatP= 1.46D-06
 IDIUse=1 WtCom= 1.00D+00 WtEn= 0.00D+00
 Coeff-Com:  0.100D+01
 Coeff:      0.100D+01
 Gap=     0.384 Goal=   None    Shift=    0.000
 Gap=     0.284 Goal=   None    Shift=    0.000
 RMSDP=9.86D-06 MaxDP=6.28D-04 DE=-4.58D-05 OVMax= 1.05D-03

 Cycle  12  Pass 1  IDiag  1:
 RMSU=  5.58D-06    CP:  1.00D+00
 E= -305.913803075190     Delta-E=       -0.000000883066 Rises=F Damp=F
 DIIS: error= 2.12D-05 at cycle   2 NSaved=   2.
 NSaved= 2 IEnMin= 2 EnMin= -305.913803075190     IErMin= 2 ErrMin= 2.12D-05
 ErrMax= 2.12D-05  0.00D+00 EMaxC= 1.00D-01 BMatC= 2.65D-07 BMatP= 1.46D-06
 IDIUse=1 WtCom= 1.00D+00 WtEn= 0.00D+00
 Coeff-Com: -0.339D-01 0.103D+01
 Coeff:     -0.339D-01 0.103D+01
 Gap=     0.384 Goal=   None    Shift=    0.000
 Gap=     0.284 Goal=   None    Shift=    0.000
 RMSDP=2.51D-06 MaxDP=1.51D-04 DE=-8.83D-07 OVMax= 8.78D-04

 Cycle  13  Pass 1  IDiag  1:
 RMSU=  2.00D-06    CP:  1.00D+00  1.27D+00
 E= -305.913803573143     Delta-E=       -0.000000497954 Rises=F Damp=F
 DIIS: error= 1.80D-05 at cycle   3 NSaved=   3.
 NSaved= 3 IEnMin= 3 EnMin= -305.913803573143     IErMin= 3 ErrMin= 1.80D-05
 ErrMax= 1.80D-05  0.00D+00 EMaxC= 1.00D-01 BMatC= 1.84D-07 BMatP= 2.65D-07
 IDIUse=1 WtCom= 1.00D+00 WtEn= 0.00D+00
 Coeff-Com: -0.840D-01 0.259D+00 0.825D+00
 Coeff:     -0.840D-01 0.259D+00 0.825D+00
 Gap=     0.384 Goal=   None    Shift=    0.000
 Gap=     0.285 Goal=   None    Shift=    0.000
 RMSDP=1.80D-06 MaxDP=1.05D-04 DE=-4.98D-07 OVMax= 6.70D-04

 Cycle  14  Pass 1  IDiag  1:
 RMSU=  6.40D-07    CP:  1.00D+00  1.45D+00  1.67D+00
 E= -305.913803874765     Delta-E=       -0.000000301622 Rises=F Damp=F
 DIIS: error= 1.43D-05 at cycle   4 NSaved=   4.
 NSaved= 4 IEnMin= 4 EnMin= -305.913803874765     IErMin= 4 ErrMin= 1.43D-05
 ErrMax= 1.43D-05  0.00D+00 EMaxC= 1.00D-01 BMatC= 1.17D-07 BMatP= 1.84D-07
 IDIUse=1 WtCom= 1.00D+00 WtEn= 0.00D+00
 Coeff-Com:  0.402D-01-0.130D+01-0.445D-01 0.230D+01
 Coeff:      0.402D-01-0.130D+01-0.445D-01 0.230D+01
 Gap=     0.384 Goal=   None    Shift=    0.000
 Gap=     0.285 Goal=   None    Shift=    0.000
 RMSDP=5.92D-06 MaxDP=3.65D-04 DE=-3.02D-07 OVMax= 2.21D-03

 Cycle  15  Pass 1  IDiag  1:
 RMSU=  2.28D-06    CP:  1.00D+00  2.01D+00  3.00D+00  2.80D+00
 E= -305.913804487642     Delta-E=       -0.000000612877 Rises=F Damp=F
 DIIS: error= 6.13D-06 at cycle   5 NSaved=   5.
 NSaved= 5 IEnMin= 5 EnMin= -305.913804487642     IErMin= 5 ErrMin= 6.13D-06
 ErrMax= 6.13D-06  0.00D+00 EMaxC= 1.00D-01 BMatC= 2.61D-08 BMatP= 1.17D-07
 IDIUse=1 WtCom= 1.00D+00 WtEn= 0.00D+00
 Coeff-Com:  0.438D-01-0.657D+00-0.231D+00 0.959D+00 0.886D+00
 Coeff:      0.438D-01-0.657D+00-0.231D+00 0.959D+00 0.886D+00
 Gap=     0.384 Goal=   None    Shift=    0.000
 Gap=     0.285 Goal=   None    Shift=    0.000
 RMSDP=2.38D-06 MaxDP=1.53D-04 DE=-6.13D-07 OVMax= 9.05D-04

 Cycle  16  Pass 1  IDiag  1:
 RMSU=  5.89D-07    CP:  1.00D+00  2.23D+00  3.00D+00  3.00D+00  1.85D+00
 E= -305.913804573081     Delta-E=       -0.000000085439 Rises=F Damp=F
 DIIS: error= 3.72D-06 at cycle   6 NSaved=   6.
 NSaved= 6 IEnMin= 6 EnMin= -305.913804573081     IErMin= 6 ErrMin= 3.72D-06
 ErrMax= 3.72D-06  0.00D+00 EMaxC= 1.00D-01 BMatC= 1.22D-08 BMatP= 2.61D-08
 IDIUse=1 WtCom= 1.00D+00 WtEn= 0.00D+00
 Coeff-Com:  0.152D-01-0.664D-01-0.765D-01-0.326D-01 0.518D+00 0.643D+00
 Coeff:      0.152D-01-0.664D-01-0.765D-01-0.326D-01 0.518D+00 0.643D+00
 Gap=     0.384 Goal=   None    Shift=    0.000
 Gap=     0.285 Goal=   None    Shift=    0.000
 RMSDP=5.22D-07 MaxDP=3.13D-05 DE=-8.54D-08 OVMax= 1.95D-04

 Cycle  17  Pass 1  IDiag  1:
 RMSU=  1.64D-07    CP:  1.00D+00  2.27D+00  3.00D+00  3.00D+00  2.04D+00
                    CP:  1.18D+00
 E= -305.913804581844     Delta-E=       -0.000000008763 Rises=F Damp=F
 DIIS: error= 1.15D-06 at cycle   7 NSaved=   7.
 NSaved= 7 IEnMin= 7 EnMin= -305.913804581844     IErMin= 7 ErrMin= 1.15D-06
 ErrMax= 1.15D-06  0.00D+00 EMaxC= 1.00D-01 BMatC= 2.09D-09 BMatP= 1.22D-08
 IDIUse=1 WtCom= 1.00D+00 WtEn= 0.00D+00
 Coeff-Com: -0.141D-01 0.288D+00 0.979D-01-0.529D+00-0.102D+00 0.148D+00
 Coeff-Com:  0.111D+01
 Coeff:     -0.141D-01 0.288D+00 0.979D-01-0.529D+00-0.102D+00 0.148D+00
 Coeff:      0.111D+01
 Gap=     0.384 Goal=   None    Shift=    0.000
 Gap=     0.285 Goal=   None    Shift=    0.000
 RMSDP=3.94D-07 MaxDP=2.70D-05 DE=-8.76D-09 OVMax= 1.44D-04

 Cycle  18  Pass 1  IDiag  1:
 RMSU=  1.31D-07    CP:  1.00D+00  2.30D+00  3.00D+00  3.00D+00  2.18D+00
                    CP:  1.31D+00  1.71D+00
 E= -305.913804585393     Delta-E=       -0.000000003549 Rises=F Damp=F
 DIIS: error= 7.88D-07 at cycle   8 NSaved=   8.
 NSaved= 8 IEnMin= 8 EnMin= -305.913804585393     IErMin= 8 ErrMin= 7.88D-07
 ErrMax= 7.88D-07  0.00D+00 EMaxC= 1.00D-01 BMatC= 5.80D-10 BMatP= 2.09D-09
 IDIUse=1 WtCom= 1.00D+00 WtEn= 0.00D+00
 Coeff-Com: -0.389D-02 0.396D-01 0.338D-01-0.612D-01-0.848D-01-0.207D+00
 Coeff-Com:  0.211D+00 0.107D+01
 Coeff:     -0.389D-02 0.396D-01 0.338D-01-0.612D-01-0.848D-01-0.207D+00
 Coeff:      0.211D+00 0.107D+01
 Gap=     0.384 Goal=   None    Shift=    0.000
 Gap=     0.285 Goal=   None    Shift=    0.000
 RMSDP=1.44D-07 MaxDP=8.66D-06 DE=-3.55D-09 OVMax= 4.78D-05

 Cycle  19  Pass 1  IDiag  1:
 RMSU=  4.22D-08    CP:  1.00D+00  2.31D+00  3.00D+00  3.00D+00  2.22D+00
                    CP:  1.36D+00  2.13D+00  1.35D+00
 E= -305.913804585957     Delta-E=       -0.000000000564 Rises=F Damp=F
 DIIS: error= 3.11D-07 at cycle   9 NSaved=   9.
 NSaved= 9 IEnMin= 9 EnMin= -305.913804585957     IErMin= 9 ErrMin= 3.11D-07
 ErrMax= 3.11D-07  0.00D+00 EMaxC= 1.00D-01 BMatC= 1.06D-10 BMatP= 5.80D-10
 IDIUse=1 WtCom= 1.00D+00 WtEn= 0.00D+00
 Coeff-Com:  0.186D-02-0.566D-01-0.863D-02 0.104D+00 0.988D-03-0.142D+00
 Coeff-Com: -0.180D+00 0.421D+00 0.860D+00
 Coeff:      0.186D-02-0.566D-01-0.863D-02 0.104D+00 0.988D-03-0.142D+00
 Coeff:     -0.180D+00 0.421D+00 0.860D+00
 Gap=     0.384 Goal=   None    Shift=    0.000
 Gap=     0.285 Goal=   None    Shift=    0.000
 RMSDP=5.32D-08 MaxDP=3.23D-06 DE=-5.64D-10 OVMax= 1.58D-05

 Cycle  20  Pass 1  IDiag  1:
 RMSU=  1.73D-08    CP:  1.00D+00  2.31D+00  3.00D+00  3.00D+00  2.23D+00
                    CP:  1.38D+00  2.27D+00  1.53D+00  1.22D+00
 E= -305.913804586032     Delta-E=       -0.000000000075 Rises=F Damp=F
 DIIS: error= 5.38D-08 at cycle  10 NSaved=  10.
 NSaved=10 IEnMin=10 EnMin= -305.913804586032     IErMin=10 ErrMin= 5.38D-08
 ErrMax= 5.38D-08  0.00D+00 EMaxC= 1.00D-01 BMatC= 3.63D-12 BMatP= 1.06D-10
 IDIUse=1 WtCom= 1.00D+00 WtEn= 0.00D+00
 Coeff-Com:  0.405D-03-0.458D-02-0.228D-02 0.648D-02 0.852D-02 0.851D-02
 Coeff-Com: -0.173D-01-0.841D-01 0.171D-01 0.107D+01
 Coeff:      0.405D-03-0.458D-02-0.228D-02 0.648D-02 0.852D-02 0.851D-02
 Coeff:     -0.173D-01-0.841D-01 0.171D-01 0.107D+01
 Gap=     0.384 Goal=   None    Shift=    0.000
 Gap=     0.285 Goal=   None    Shift=    0.000
 RMSDP=8.54D-09 MaxDP=3.64D-07 DE=-7.46D-11 OVMax= 1.62D-06

 SCF Done:  E(UM062X) =  -305.913804586     A.U. after   20 cycles
            NFock= 20  Conv=0.85D-08     -V/T= 2.0048
 <Sx>= 0.0000 <Sy>= 0.0000 <Sz>= 0.5000 <S**2>= 0.7557 S= 0.5028
 <L.S>= 0.000000000000E+00
 KE= 3.044612680657D+02 PE=-1.114776321489D+03 EE= 3.065871561128D+02
 Annihilation of the first spin contaminant:
 S**2 before annihilation     0.7557,   after     0.7500
 Leave Link  502 at Sat Jun 22 13:09:33 2019, MaxMem=   671088640 cpu:             898.3 elap:              45.0
 (Enter /shared/centos7/gaussian/g16/l801.exe)
 DoSCS=F DFT=T ScalE2(SS,OS)=  1.000000  1.000000
 Range of M.O.s used for correlation:     1   248
 NBasis=   248 NAE=    22 NBE=    21 NFC=     0 NFV=     0
 NROrb=    248 NOA=    22 NOB=    21 NVA=   226 NVB=   227

 **** Warning!!: The largest alpha MO coefficient is  0.11521335D+02


 **** Warning!!: The largest beta MO coefficient is  0.11520983D+02

 Leave Link  801 at Sat Jun 22 13:09:34 2019, MaxMem=   671088640 cpu:               0.6 elap:               0.1
 (Enter /shared/centos7/gaussian/g16/l1101.exe)
 Using compressed storage, NAtomX=    12.
 Will process     13 centers per pass.
 Leave Link 1101 at Sat Jun 22 13:09:34 2019, MaxMem=   671088640 cpu:               4.9 elap:               0.3
 (Enter /shared/centos7/gaussian/g16/l1102.exe)
 Symmetrizing basis deriv contribution to polar:
 IMax=3 JMax=2 DiffMx= 0.00D+00
 Leave Link 1102 at Sat Jun 22 13:09:34 2019, MaxMem=   671088640 cpu:               1.4 elap:               0.1
 (Enter /shared/centos7/gaussian/g16/l1110.exe)
 Forming Gx(P) for the SCF density, NAtomX=    12.
 Integral derivatives from FoFJK, PRISM(SPDF).
 Do as many integral derivatives as possible in FoFJK.
 G2DrvN: MDV=     671087640.
 G2DrvN: will do    13 centers at a time, making    1 passes.
 Calling FoFCou, ICntrl=  3107 FMM=F I1Cent=   0 AccDes= 0.00D+00.
 FoFJK:  IHMeth= 1 ICntrl=    3107 DoSepK=F KAlg= 0 I1Cent=           0 FoldK=F
 IRaf=         0 NMat=       1 IRICut=       1 DoRegI=T DoRafI=F ISym2E= 0 IDoP0=0 IntGTp=1.
 FoFCou: FMM=F IPFlag=           0 FMFlag=      100000 FMFlg1=           0
         NFxFlg=           0 DoJE=F BraDBF=F KetDBF=F FulRan=T
         wScrn=  0.000000 ICntrl=      3107 IOpCl=  1 I1Cent=           0 NGrid=           0
         NMat0=    1 NMatS0=      1 NMatT0=    0 NMatD0=    1 NMtDS0=    0 NMtDT0=    0
 Symmetry not used in FoFCou.
 End of G2Drv F.D. properties file   721 does not exist.
 End of G2Drv F.D. properties file   722 does not exist.
 End of G2Drv F.D. properties file   788 does not exist.
 Leave Link 1110 at Sat Jun 22 13:10:48 2019, MaxMem=   671088640 cpu:            1470.0 elap:              73.6
 (Enter /shared/centos7/gaussian/g16/l1002.exe)
 Minotr:  UHF open shell wavefunction.
          IDoAtm=111111111111
          Direct CPHF calculation.
          Differentiating once with respect to nuclear coordinates.
          Requested convergence is 1.0D-08 RMS, and 1.0D-07 maximum.
          Secondary convergence is 1.0D-12 RMS, and 1.0D-12 maximum.
          NewPWx=T KeepS1=F KeepF1=F KeepIn=T MapXYZ=F SortEE=F KeepMc=T.
         3577 words used for storage of precomputed grid.
 Two-electron integrals replicated using symmetry.
          MDV=     671088640 using IRadAn=       1.
          Solving linear equations simultaneously, MaxMat=     380.
 FoF2E skips out because all densities are zero.
 CalDSu exits because no D1Ps are significant.
 FoFJK:  IHMeth= 1 ICntrl=       0 DoSepK=F KAlg= 0 I1Cent=           0 FoldK=F
 IRaf= 980000000 NMat=      36 IRICut=      90 DoRegI=T DoRafI=T ISym2E= 2 IDoP0=3 IntGTp=3.
 FoFCou: FMM=F IPFlag=           0 FMFlag=      100000 FMFlg1=           0
         NFxFlg=           0 DoJE=F BraDBF=F KetDBF=F FulRan=T
         wScrn=  0.000000 ICntrl=         0 IOpCl=  1 I1Cent=           0 NGrid=           0
         NMat0=   36 NMatS0=     36 NMatT0=    0 NMatD0=   36 NMtDS0=    0 NMtDT0=    0
 Integrals replicated using symmetry in FoFCou.
 Raff kept on since  97.12% of shell-pairs survive, threshold=   0.20 IRatSp=97.
          There are    39 degrees of freedom in the 1st order CPHF.  IDoFFX=6 NUNeed=     0.
     33 vectors produced by pass  0 Test12= 2.50D-14 2.56D-09 XBig12= 1.52D-01 1.02D-01.
 AX will form    33 AO Fock derivatives at one time.
     33 vectors produced by pass  1 Test12= 2.50D-14 2.56D-09 XBig12= 1.04D-02 3.19D-02.
     33 vectors produced by pass  2 Test12= 2.50D-14 2.56D-09 XBig12= 1.05D-03 1.29D-02.
     33 vectors produced by pass  3 Test12= 2.50D-14 2.56D-09 XBig12= 2.00D-05 7.22D-04.
     33 vectors produced by pass  4 Test12= 2.50D-14 2.56D-09 XBig12= 3.56D-07 7.98D-05.
     33 vectors produced by pass  5 Test12= 2.50D-14 2.56D-09 XBig12= 6.84D-09 1.02D-05.
     33 vectors produced by pass  6 Test12= 2.50D-14 2.56D-09 XBig12= 6.38D-11 1.00D-06.
     15 vectors produced by pass  7 Test12= 2.50D-14 2.56D-09 XBig12= 4.77D-13 8.10D-08.
      1 vectors produced by pass  8 Test12= 2.50D-14 2.56D-09 XBig12= 3.28D-15 7.42D-09.
 InvSVY:  IOpt=1 It=  1 EMax= 1.11D-15
 Solved reduced A of dimension   247 with    33 vectors.
 End of Minotr F.D. properties file   721 does not exist.
 End of Minotr F.D. properties file   722 does not exist.
 End of Minotr F.D. properties file   788 does not exist.
 Leave Link 1002 at Sat Jun 22 13:12:58 2019, MaxMem=   671088640 cpu:            2601.9 elap:             130.2
 (Enter /shared/centos7/gaussian/g16/l601.exe)
 Copying SCF densities to generalized density rwf, IOpCl= 1 IROHF=0.

 **********************************************************************

            Population analysis using the SCF density.

 **********************************************************************

 Orbital symmetries:
 Alpha Orbitals:
       Occupied  (A) (A) (A) (A) (A) (A) (A) (A) (A) (A) (A) (A)
                 (A) (A) (A) (A) (A) (A) (A) (A) (A) (A)
       Virtual   (A) (A) (A) (A) (A) (A) (A) (A) (A) (A) (A) (A)
                 (A) (A) (A) (A) (A) (A) (A) (A) (A) (A) (A) (A)
                 (A) (A) (A) (A) (A) (A) (A) (A) (A) (A) (A) (A)
                 (A) (A) (A) (A) (A) (A) (A) (A) (A) (A) (A) (A)
                 (A) (A) (A) (A) (A) (A) (A) (A) (A) (A) (A) (A)
                 (A) (A) (A) (A) (A) (A) (A) (A) (A) (A) (A) (A)
                 (A) (A) (A) (A) (A) (A) (A) (A) (A) (A) (A) (A)
                 (A) (A) (A) (A) (A) (A) (A) (A) (A) (A) (A) (A)
                 (A) (A) (A) (A) (A) (A) (A) (A) (A) (A) (A) (A)
                 (A) (A) (A) (A) (A) (A) (A) (A) (A) (A) (A) (A)
                 (A) (A) (A) (A) (A) (A) (A) (A) (A) (A) (A) (A)
                 (A) (A) (A) (A) (A) (A) (A) (A) (A) (A) (A) (A)
                 (A) (A) (A) (A) (A) (A) (A) (A) (A) (A) (A) (A)
                 (A) (A) (A) (A) (A) (A) (A) (A) (A) (A) (A) (A)
                 (A) (A) (A) (A) (A) (A) (A) (A) (A) (A) (A) (A)
                 (A) (A) (A) (A) (A) (A) (A) (A) (A) (A) (A) (A)
                 (A) (A) (A) (A) (A) (A) (A) (A) (A) (A) (A) (A)
                 (A) (A) (A) (A) (A) (A) (A) (A) (A) (A) (A) (A)
                 (A) (A) (A) (A) (A) (A) (A) (A) (A) (A)
 Beta  Orbitals:
       Occupied  (A) (A) (A) (A) (A) (A) (A) (A) (A) (A) (A) (A)
                 (A) (A) (A) (A) (A) (A) (A) (A) (A)
       Virtual   (A) (A) (A) (A) (A) (A) (A) (A) (A) (A) (A) (A)
                 (A) (A) (A) (A) (A) (A) (A) (A) (A) (A) (A) (A)
                 (A) (A) (A) (A) (A) (A) (A) (A) (A) (A) (A) (A)
                 (A) (A) (A) (A) (A) (A) (A) (A) (A) (A) (A) (A)
                 (A) (A) (A) (A) (A) (A) (A) (A) (A) (A) (A) (A)
                 (A) (A) (A) (A) (A) (A) (A) (A) (A) (A) (A) (A)
                 (A) (A) (A) (A) (A) (A) (A) (A) (A) (A) (A) (A)
                 (A) (A) (A) (A) (A) (A) (A) (A) (A) (A) (A) (A)
                 (A) (A) (A) (A) (A) (A) (A) (A) (A) (A) (A) (A)
                 (A) (A) (A) (A) (A) (A) (A) (A) (A) (A) (A) (A)
                 (A) (A) (A) (A) (A) (A) (A) (A) (A) (A) (A) (A)
                 (A) (A) (A) (A) (A) (A) (A) (A) (A) (A) (A) (A)
                 (A) (A) (A) (A) (A) (A) (A) (A) (A) (A) (A) (A)
                 (A) (A) (A) (A) (A) (A) (A) (A) (A) (A) (A) (A)
                 (A) (A) (A) (A) (A) (A) (A) (A) (A) (A) (A) (A)
                 (A) (A) (A) (A) (A) (A) (A) (A) (A) (A) (A) (A)
                 (A) (A) (A) (A) (A) (A) (A) (A) (A) (A) (A) (A)
                 (A) (A) (A) (A) (A) (A) (A) (A) (A) (A) (A) (A)
                 (A) (A) (A) (A) (A) (A) (A) (A) (A) (A) (A)
 The electronic state is 2-A.
 Alpha  occ. eigenvalues --  -19.71661 -19.70451 -19.64426 -10.59594 -10.53276
 Alpha  occ. eigenvalues --   -1.31829  -1.16511  -0.98759  -0.85793  -0.72970
 Alpha  occ. eigenvalues --   -0.65636  -0.60597  -0.57244  -0.56183  -0.54327
 Alpha  occ. eigenvalues --   -0.52350  -0.45365  -0.44587  -0.41785  -0.38274
 Alpha  occ. eigenvalues --   -0.37524  -0.32830
 Alpha virt. eigenvalues --    0.05585   0.09207   0.09485   0.12303   0.14216
 Alpha virt. eigenvalues --    0.15346   0.17861   0.19460   0.22476   0.26010
 Alpha virt. eigenvalues --    0.28162   0.29669   0.35603   0.36584   0.38189
 Alpha virt. eigenvalues --    0.40325   0.44807   0.45763   0.46615   0.47812
 Alpha virt. eigenvalues --    0.49205   0.50820   0.52069   0.53210   0.56970
 Alpha virt. eigenvalues --    0.58054   0.59078   0.61320   0.62431   0.65454
 Alpha virt. eigenvalues --    0.69089   0.72688   0.72862   0.78060   0.78885
 Alpha virt. eigenvalues --    0.81219   0.83216   0.85664   0.88817   0.91375
 Alpha virt. eigenvalues --    0.95514   0.96139   1.00947   1.01982   1.05110
 Alpha virt. eigenvalues --    1.09292   1.10549   1.12963   1.14346   1.17315
 Alpha virt. eigenvalues --    1.17634   1.19194   1.21329   1.22783   1.25437
 Alpha virt. eigenvalues --    1.31050   1.31551   1.34199   1.35747   1.37967
 Alpha virt. eigenvalues --    1.41638   1.42269   1.44807   1.49792   1.52280
 Alpha virt. eigenvalues --    1.57225   1.58152   1.63481   1.70380   1.72090
 Alpha virt. eigenvalues --    1.75176   1.85876   1.92806   1.95937   2.00538
 Alpha virt. eigenvalues --    2.02480   2.09202   2.09564   2.10458   2.16363
 Alpha virt. eigenvalues --    2.24047   2.26246   2.29404   2.31634   2.36246
 Alpha virt. eigenvalues --    2.38729   2.42661   2.51695   2.52275   2.54760
 Alpha virt. eigenvalues --    2.58818   2.63751   2.65224   2.72591   2.75615
 Alpha virt. eigenvalues --    2.82522   2.84174   2.87814   2.91903   2.94294
 Alpha virt. eigenvalues --    2.95928   2.98026   3.01191   3.03934   3.06118
 Alpha virt. eigenvalues --    3.08933   3.11320   3.12920   3.14525   3.17004
 Alpha virt. eigenvalues --    3.20594   3.25588   3.27755   3.29662   3.30613
 Alpha virt. eigenvalues --    3.32934   3.36332   3.40896   3.42609   3.45074
 Alpha virt. eigenvalues --    3.46409   3.47960   3.51772   3.52140   3.58764
 Alpha virt. eigenvalues --    3.59361   3.64051   3.67169   3.70395   3.73031
 Alpha virt. eigenvalues --    3.74264   3.76053   3.77306   3.78535   3.80669
 Alpha virt. eigenvalues --    3.84173   3.85870   3.87427   3.89132   3.89499
 Alpha virt. eigenvalues --    3.91359   3.95261   3.97776   3.98862   4.01247
 Alpha virt. eigenvalues --    4.03460   4.05502   4.07933   4.12360   4.14578
 Alpha virt. eigenvalues --    4.17068   4.18567   4.20918   4.25578   4.26735
 Alpha virt. eigenvalues --    4.27880   4.32314   4.35865   4.40200   4.43498
 Alpha virt. eigenvalues --    4.54928   4.58898   4.60687   4.62800   4.69696
 Alpha virt. eigenvalues --    4.71987   4.76340   4.78086   4.81532   4.83921
 Alpha virt. eigenvalues --    4.86546   4.90551   4.93647   4.94847   4.96885
 Alpha virt. eigenvalues --    5.02335   5.08010   5.10194   5.11357   5.14929
 Alpha virt. eigenvalues --    5.16870   5.25559   5.32289   5.35714   5.39605
 Alpha virt. eigenvalues --    5.43852   5.51141   5.55022   5.56637   5.66033
 Alpha virt. eigenvalues --    5.72601   5.74934   5.81718   5.87577   5.95440
 Alpha virt. eigenvalues --    6.02639   6.18036   6.19924   6.27893   6.31560
 Alpha virt. eigenvalues --    6.33196   6.40768   6.44029   6.44896   6.49535
 Alpha virt. eigenvalues --    6.56571   6.60632   6.63348   6.66551   6.70264
 Alpha virt. eigenvalues --    6.79684   6.83771   6.87112   6.89704   7.05453
 Alpha virt. eigenvalues --    7.14916   7.19107   7.29314   7.31430   7.39947
 Alpha virt. eigenvalues --    7.59863   9.73330  11.65364  12.09025  12.34955
 Alpha virt. eigenvalues --   13.30182
  Beta  occ. eigenvalues --  -19.71099 -19.69033 -19.64426 -10.59602 -10.53051
  Beta  occ. eigenvalues --   -1.28908  -1.16483  -0.94707  -0.85181  -0.72327
  Beta  occ. eigenvalues --   -0.63801  -0.58219  -0.54969  -0.54336  -0.53541
  Beta  occ. eigenvalues --   -0.49402  -0.44862  -0.42371  -0.40158  -0.36431
  Beta  occ. eigenvalues --   -0.35447
  Beta virt. eigenvalues --   -0.06993   0.05653   0.09206   0.09746   0.12281
  Beta virt. eigenvalues --    0.14393   0.15596   0.18508   0.19626   0.23146
  Beta virt. eigenvalues --    0.26408   0.28463   0.29954   0.35664   0.36691
  Beta virt. eigenvalues --    0.38450   0.40570   0.44900   0.45884   0.46723
  Beta virt. eigenvalues --    0.48081   0.49547   0.51064   0.52472   0.54236
  Beta virt. eigenvalues --    0.57354   0.58464   0.59220   0.61551   0.62848
  Beta virt. eigenvalues --    0.65853   0.69205   0.73304   0.73462   0.78276
  Beta virt. eigenvalues --    0.79346   0.81670   0.83281   0.85907   0.89084
  Beta virt. eigenvalues --    0.91497   0.95764   0.96260   1.01140   1.02175
  Beta virt. eigenvalues --    1.05337   1.09496   1.10598   1.13139   1.14558
  Beta virt. eigenvalues --    1.17574   1.18005   1.19294   1.21565   1.23108
  Beta virt. eigenvalues --    1.25495   1.31173   1.31817   1.34562   1.36057
  Beta virt. eigenvalues --    1.38469   1.41903   1.42479   1.45508   1.50140
  Beta virt. eigenvalues --    1.52546   1.57599   1.58365   1.64037   1.70887
  Beta virt. eigenvalues --    1.73179   1.75550   1.86511   1.93046   1.96191
  Beta virt. eigenvalues --    2.00999   2.03303   2.09375   2.09872   2.11197
  Beta virt. eigenvalues --    2.16966   2.24386   2.26968   2.29777   2.31894
  Beta virt. eigenvalues --    2.36736   2.38894   2.43225   2.51967   2.52465
  Beta virt. eigenvalues --    2.54951   2.59130   2.64029   2.65577   2.72865
  Beta virt. eigenvalues --    2.75669   2.82886   2.84395   2.88142   2.92304
  Beta virt. eigenvalues --    2.94708   2.96143   2.98097   3.01368   3.04736
  Beta virt. eigenvalues --    3.06353   3.09287   3.11403   3.13245   3.14980
  Beta virt. eigenvalues --    3.17347   3.21094   3.25867   3.28215   3.29781
  Beta virt. eigenvalues --    3.30722   3.33366   3.36338   3.40804   3.42792
  Beta virt. eigenvalues --    3.45275   3.46728   3.48047   3.51818   3.52258
  Beta virt. eigenvalues --    3.58766   3.59742   3.64439   3.67770   3.70734
  Beta virt. eigenvalues --    3.73346   3.74446   3.76261   3.77461   3.78760
  Beta virt. eigenvalues --    3.81253   3.84509   3.85826   3.87509   3.89246
  Beta virt. eigenvalues --    3.89917   3.91204   3.95490   3.98065   3.99178
  Beta virt. eigenvalues --    4.01367   4.03464   4.05943   4.07580   4.12672
  Beta virt. eigenvalues --    4.14700   4.17157   4.19203   4.21178   4.25667
  Beta virt. eigenvalues --    4.26765   4.27888   4.32559   4.36011   4.40290
  Beta virt. eigenvalues --    4.43977   4.55644   4.59441   4.60819   4.62995
  Beta virt. eigenvalues --    4.69831   4.72207   4.76652   4.78460   4.81722
  Beta virt. eigenvalues --    4.84272   4.86949   4.90892   4.94245   4.95937
  Beta virt. eigenvalues --    4.97683   5.02660   5.08843   5.10810   5.11822
  Beta virt. eigenvalues --    5.15289   5.17543   5.25756   5.32574   5.36151
  Beta virt. eigenvalues --    5.39721   5.44475   5.52544   5.55399   5.57212
  Beta virt. eigenvalues --    5.66835   5.72995   5.75712   5.82147   5.88480
  Beta virt. eigenvalues --    5.95604   6.03672   6.18377   6.21268   6.30202
  Beta virt. eigenvalues --    6.33043   6.36998   6.42142   6.46942   6.48078
  Beta virt. eigenvalues --    6.52633   6.59205   6.63090   6.65053   6.66664
  Beta virt. eigenvalues --    6.70560   6.80712   6.84114   6.87161   6.92478
  Beta virt. eigenvalues --    7.05701   7.15064   7.19249   7.30684   7.34669
  Beta virt. eigenvalues --    7.39999   7.61188   9.74836  11.65756  12.09066
  Beta virt. eigenvalues --   12.34991  13.30368
          Condensed to atoms (all electrons):
               1          2          3          4          5          6
     1  O    7.969674  -0.031096   0.001769   0.251177  -0.045834  -0.041749
     2  O   -0.031096   7.829009   0.063932   0.016039  -0.003696   0.006439
     3  O    0.001769   0.063932   8.135557  -0.007848  -0.081415  -0.000578
     4  C    0.251177   0.016039  -0.007848   4.819849   0.311349   0.403641
     5  C   -0.045834  -0.003696  -0.081415   0.311349   5.192605  -0.050843
     6  H   -0.041749   0.006439  -0.000578   0.403641  -0.050843   0.594879
     7  H   -0.032930   0.000290  -0.000157   0.417064  -0.043981  -0.048684
     8  H   -0.004621   0.000715  -0.000010  -0.037006   0.382202   0.008713
     9  H    0.006056  -0.000040   0.002498  -0.036175   0.368612  -0.003427
    10  H    0.306151   0.000765   0.002830  -0.035115  -0.006336   0.010155
    11  H    0.051661   0.302518  -0.036378  -0.002945  -0.004616  -0.007686
    12  H    0.002535  -0.018128   0.063233  -0.019665   0.368415  -0.005870
               7          8          9         10         11         12
     1  O   -0.032930  -0.004621   0.006056   0.306151   0.051661   0.002535
     2  O    0.000290   0.000715  -0.000040   0.000765   0.302518  -0.018128
     3  O   -0.000157  -0.000010   0.002498   0.002830  -0.036378   0.063233
     4  C    0.417064  -0.037006  -0.036175  -0.035115  -0.002945  -0.019665
     5  C   -0.043981   0.382202   0.368612  -0.006336  -0.004616   0.368415
     6  H   -0.048684   0.008713  -0.003427   0.010155  -0.007686  -0.005870
     7  H    0.601733  -0.008907  -0.000733  -0.005328   0.001334   0.004523
     8  H   -0.008907   0.599842  -0.032766   0.006509  -0.000496  -0.023648
     9  H   -0.000733  -0.032766   0.601467   0.000057  -0.000101  -0.016344
    10  H   -0.005328   0.006509   0.000057   0.455480  -0.005322  -0.001172
    11  H    0.001334  -0.000496  -0.000101  -0.005322   0.414956   0.005434
    12  H    0.004523  -0.023648  -0.016344  -0.001172   0.005434   0.455009
          Atomic-Atomic Spin Densities.
               1          2          3          4          5          6
     1  O    0.000589  -0.000788   0.001343   0.001691  -0.001840   0.000980
     2  O   -0.000788   0.291344  -0.110593  -0.001205   0.013218  -0.001525
     3  O    0.001343  -0.110593   0.823451  -0.000934  -0.056402   0.000323
     4  C    0.001691  -0.001205  -0.000934  -0.017860   0.003624   0.000732
     5  C   -0.001840   0.013218  -0.056402   0.003624   0.208474   0.000001
     6  H    0.000980  -0.001525   0.000323   0.000732   0.000001   0.002266
     7  H   -0.002135   0.000498  -0.000923   0.002488  -0.007410  -0.001361
     8  H    0.000637  -0.000523   0.002953  -0.000962   0.000107  -0.000213
     9  H    0.000027  -0.000497   0.002173   0.001573   0.000669   0.000117
    10  H    0.000197   0.000113  -0.000644   0.000096  -0.000115  -0.000062
    11  H    0.000352   0.001251  -0.000106   0.000178   0.000107  -0.000025
    12  H   -0.000753   0.008227  -0.026911   0.002916   0.031699   0.000550
               7          8          9         10         11         12
     1  O   -0.002135   0.000637   0.000027   0.000197   0.000352  -0.000753
     2  O    0.000498  -0.000523  -0.000497   0.000113   0.001251   0.008227
     3  O   -0.000923   0.002953   0.002173  -0.000644  -0.000106  -0.026911
     4  C    0.002488  -0.000962   0.001573   0.000096   0.000178   0.002916
     5  C   -0.007410   0.000107   0.000669  -0.000115   0.000107   0.031699
     6  H   -0.001361  -0.000213   0.000117  -0.000062  -0.000025   0.000550
     7  H    0.023579  -0.001313  -0.001637   0.000064   0.000051   0.000882
     8  H   -0.001313  -0.008268   0.002665  -0.000112   0.000069  -0.001126
     9  H   -0.001637   0.002665  -0.009079  -0.000049   0.000023  -0.000818
    10  H    0.000064  -0.000112  -0.000049  -0.000065   0.000081   0.000297
    11  H    0.000051   0.000069   0.000023   0.000081  -0.009024  -0.000933
    12  H    0.000882  -0.001126  -0.000818   0.000297  -0.000933  -0.027533
 Mulliken charges and spin densities:
               1          2
     1  O   -0.432794   0.000301
     2  O   -0.166748   0.199520
     3  O   -0.143435   0.633731
     4  C   -0.080365  -0.007662
     5  C   -0.386461   0.192133
     6  H    0.135012   0.001784
     7  H    0.115775   0.012784
     8  H    0.109473  -0.006085
     9  H    0.110897  -0.004833
    10  H    0.271326  -0.000197
    11  H    0.281643  -0.007974
    12  H    0.185678  -0.013502
 Sum of Mulliken charges =  -0.00000   1.00000
 Mulliken charges and spin densities with hydrogens summed into heavy atoms:
               1          2
     1  O   -0.161468   0.000104
     2  O    0.114895   0.191546
     3  O   -0.143435   0.633731
     4  C    0.170421   0.006906
     5  C    0.019586   0.167713
 APT charges:
               1
     1  O   -0.508778
     2  O   -0.184020
     3  O   -0.118297
     4  C   -0.679245
     5  C   -0.843225
     6  H    0.301887
     7  H    0.443282
     8  H    0.333886
     9  H    0.387474
    10  H    0.422714
    11  H    0.303924
    12  H    0.140398
 Sum of APT charges =  -0.00000
 APT charges with hydrogens summed into heavy atoms:
               1
     1  O   -0.086064
     2  O    0.119904
     3  O   -0.118297
     4  C    0.065925
     5  C    0.018533
 Electronic spatial extent (au):  <R**2>=            478.3144
 Charge=             -0.0000 electrons
 Dipole moment (field-independent basis, Debye):
    X=             -2.1389    Y=             -0.0673    Z=             -0.6204  Tot=              2.2281
 Quadrupole moment (field-independent basis, Debye-Ang):
   XX=            -33.5019   YY=            -32.1498   ZZ=            -28.7744
   XY=             -2.6469   XZ=              0.1268   YZ=              0.7704
 Traceless Quadrupole moment (field-independent basis, Debye-Ang):
   XX=             -2.0265   YY=             -0.6744   ZZ=              2.7010
   XY=             -2.6469   XZ=              0.1268   YZ=              0.7704
 Octapole moment (field-independent basis, Debye-Ang**2):
  XXX=              0.0417  YYY=             -3.2839  ZZZ=             -5.8922  XYY=              6.4099
  XXY=             -2.5931  XXZ=             -2.1579  XZZ=             -1.4128  YZZ=             -3.9865
  YYZ=              0.2383  XYZ=             -0.0679
 Hexadecapole moment (field-independent basis, Debye-Ang**3):
 XXXX=           -330.5492 YYYY=           -185.9107 ZZZZ=            -66.2871 XXXY=              3.1837
 XXXZ=             -0.9169 YYYX=             -5.4665 YYYZ=              1.0678 ZZZX=              6.2060
 ZZZY=              4.1460 XXYY=            -87.3180 XXZZ=            -65.6959 YYZZ=            -38.9368
 XXYZ=              2.2571 YYXZ=              0.2256 ZZXY=              2.6119
 N-N= 1.978140927244D+02 E-N=-1.114776320347D+03  KE= 3.044612680657D+02
  Exact polarizability:   0.000   0.000   0.000   0.000   0.000   0.000
 Approx polarizability:  54.375  -6.550  51.741   0.408  -4.108  47.532
                          Isotropic Fermi Contact Couplings
        Atom                 a.u.       MegaHertz       Gauss      10(-4) cm-1
     1  O(17)              0.00139      -0.84090      -0.30005      -0.28049
     2  O(17)              0.03068     -18.60066      -6.63718      -6.20451
     3  O(17)              0.15266     -92.54111     -33.02097     -30.86839
     4  C(13)             -0.00533      -5.99627      -2.13962      -2.00014
     5  C(13)              0.09582     107.72424      38.43869      35.93294
     6  H(1)               0.00206       9.22239       3.29078       3.07626
     7  H(1)               0.00581      25.95337       9.26081       8.65711
     8  H(1)              -0.00131      -5.87259      -2.09548      -1.95888
     9  H(1)              -0.00001      -0.04595      -0.01640      -0.01533
    10  H(1)              -0.00005      -0.20440      -0.07293      -0.06818
    11  H(1)              -0.00393     -17.57963      -6.27285      -5.86393
    12  H(1)              -0.01509     -67.43784     -24.06350     -22.49484
 --------------------------------------------------------
       Center         ----  Spin Dipole Couplings  ----
                      3XX-RR        3YY-RR        3ZZ-RR
 --------------------------------------------------------
     1   Atom        0.000398      0.003435     -0.003833
     2   Atom        0.540736     -0.292393     -0.248343
     3   Atom        1.668846     -1.075715     -0.593131
     4   Atom        0.010172     -0.004022     -0.006150
     5   Atom        0.248224     -0.123672     -0.124551
     6   Atom        0.002376     -0.002594      0.000217
     7   Atom        0.005309     -0.001484     -0.003825
     8   Atom        0.005027     -0.015239      0.010212
     9   Atom        0.001745      0.001831     -0.003576
    10   Atom        0.002777     -0.000196     -0.002581
    11   Atom       -0.002723      0.028150     -0.025427
    12   Atom        0.121544     -0.042192     -0.079351
 --------------------------------------------------------
                        XY            XZ            YZ
 --------------------------------------------------------
     1   Atom        0.003038     -0.001606      0.004716
     2   Atom       -0.527353     -0.626394      0.354229
     3   Atom       -1.135150     -1.652062      0.607109
     4   Atom        0.006956      0.003170      0.001589
     5   Atom       -0.012436     -0.010556      0.000234
     6   Atom        0.001774     -0.005099     -0.005007
     7   Atom        0.002287     -0.002229     -0.000690
     8   Atom       -0.005599      0.009852     -0.006321
     9   Atom       -0.008335     -0.006140      0.015641
    10   Atom        0.004749      0.003890      0.003890
    11   Atom        0.030911      0.005630      0.014986
    12   Atom       -0.080508     -0.035732      0.015551
 --------------------------------------------------------


 ---------------------------------------------------------------------------------
              Anisotropic Spin Dipole Couplings in Principal Axis System
 ---------------------------------------------------------------------------------

       Atom             a.u.   MegaHertz   Gauss  10(-4) cm-1        Axes

              Baa    -0.0072     0.522     0.186     0.174  0.3557 -0.4614  0.8128
     1 O(17)  Bbb     0.0007    -0.052    -0.019    -0.017  0.8690 -0.1569 -0.4694
              Bcc     0.0065    -0.470    -0.168    -0.157  0.3441  0.8732  0.3451
 
              Baa    -0.6335    45.839    16.356    15.290  0.1769 -0.5641  0.8066
     2 O(17)  Bbb    -0.5287    38.255    13.651    12.761  0.5782  0.7227  0.3786
              Bcc     1.1622   -84.094   -30.007   -28.051  0.7965 -0.3993 -0.4540
 
              Baa    -1.4893   107.762    38.452    35.946  0.1296  0.9154 -0.3812
     3 O(17)  Bbb    -1.4622   105.802    37.753    35.292  0.5232  0.2635  0.8105
              Bcc     2.9514  -213.565   -76.205   -71.238  0.8423 -0.3045 -0.4447
 
              Baa    -0.0071    -0.952    -0.340    -0.318 -0.1823  0.7450 -0.6417
     4 C(13)  Bbb    -0.0066    -0.879    -0.314    -0.293 -0.3712  0.5521  0.7466
              Bcc     0.0136     1.831     0.653     0.611  0.9105  0.3743  0.1759
 
              Baa    -0.1249   -16.756    -5.979    -5.589  0.0329  0.1496  0.9882
     5 C(13)  Bbb    -0.1241   -16.649    -5.941    -5.553  0.0287  0.9882 -0.1505
              Bcc     0.2489    33.405    11.920    11.143  0.9990 -0.0334 -0.0283
 
              Baa    -0.0068    -3.628    -1.295    -1.210  0.2385  0.7003  0.6729
     6 H(1)   Bbb    -0.0017    -0.893    -0.319    -0.298  0.7179 -0.5937  0.3635
              Bcc     0.0085     4.521     1.613     1.508  0.6541  0.3964 -0.6443
 
              Baa    -0.0044    -2.321    -0.828    -0.774  0.2091  0.0679  0.9755
     7 H(1)   Bbb    -0.0022    -1.164    -0.415    -0.388 -0.2930  0.9561 -0.0038
              Bcc     0.0065     3.486     1.244     1.163  0.9330  0.2851 -0.2198
 
              Baa    -0.0173    -9.222    -3.291    -3.076  0.1725  0.9717  0.1616
     8 H(1)   Bbb    -0.0025    -1.359    -0.485    -0.453  0.7824 -0.0355 -0.6217
              Bcc     0.0198    10.581     3.776     3.529  0.5984 -0.2337  0.7664
 
              Baa    -0.0168    -8.951    -3.194    -2.986 -0.0442 -0.6544  0.7549
     9 H(1)   Bbb    -0.0039    -2.067    -0.738    -0.689  0.8763  0.3375  0.3439
              Bcc     0.0206    11.018     3.931     3.675 -0.4798  0.6767  0.5585
 
              Baa    -0.0055    -2.925    -1.044    -0.976 -0.0829 -0.5412  0.8368
    10 H(1)   Bbb    -0.0034    -1.804    -0.644    -0.602  0.6993 -0.6298 -0.3381
              Bcc     0.0089     4.729     1.687     1.577  0.7100  0.5571  0.4307
 
              Baa    -0.0298   -15.913    -5.678    -5.308  0.2035 -0.3453  0.9161
    11 H(1)   Bbb    -0.0207   -11.041    -3.940    -3.683  0.8372 -0.4238 -0.3457
              Bcc     0.0505    26.954     9.618     8.991  0.5076  0.8374  0.2029
 
              Baa    -0.0857   -45.746   -16.323   -15.259  0.1176 -0.1340  0.9840
    12 H(1)   Bbb    -0.0751   -40.058   -14.294   -13.362  0.3899  0.9175  0.0784
              Bcc     0.1608    85.805    30.617    28.621  0.9133 -0.3745 -0.1601
 

 ---------------------------------------------------------------------------------

 No NMR shielding tensors so no spin-rotation constants.
 Leave Link  601 at Sat Jun 22 13:12:58 2019, MaxMem=   671088640 cpu:               7.8 elap:               0.4
 (Enter /shared/centos7/gaussian/g16/l701.exe)
 SCFChk:  SCF convergence  8.54D-09 required  1.00D-08
 ... and contract with generalized density number  0.
 Compute integral second derivatives.
 Entering OneElI...
 Calculate overlap and kinetic energy integrals
    NBasis = 280  MinDer = 2  MaxDer = 2
 Requested accuracy = 0.1000D-12
 PrmmSu-InSpLW:  IPartL=    0 NPrtUS=   20 NPrtUL=    1 DoSpLW=F IThBeg=    0 IThEnd=   19 NThAct=   20.
 PrsmSu:  NPrtUS=  20 ThrOK=T IAlg=1 NPAlg=1 LenDen=           0 ISkipM=0 DoSpLW=F IThBeg=    0 IThEnd=   19.
 Prism:   IPart=     0 DynPar=F LinDyn=F Incr=           2.
 PRISM was handed    33426783 working-precision words and  4276 shell-pairs
 PRISM was handed    33426783 working-precision words and  4276 shell-pairs
 PRISM was handed    33426783 working-precision words and  4276 shell-pairs
 PRISM was handed    33426783 working-precision words and  4276 shell-pairs
 PRISM was handed    33426783 working-precision words and  4276 shell-pairs
 PRISM was handed    33426783 working-precision words and  4276 shell-pairs
 PRISM was handed    33426783 working-precision words and  4276 shell-pairs
 PRISM was handed    33426783 working-precision words and  4276 shell-pairs
 PRISM was handed    33426783 working-precision words and  4276 shell-pairs
 PRISM was handed    33426783 working-precision words and  4276 shell-pairs
 PRISM was handed    33426783 working-precision words and  4276 shell-pairs
 PRISM was handed    33426783 working-precision words and  4276 shell-pairs
 PRISM was handed    33426783 working-precision words and  4276 shell-pairs
 PRISM was handed    33426783 working-precision words and  4276 shell-pairs
 PRISM was handed    33426783 working-precision words and  4276 shell-pairs
 PRISM was handed    33426783 working-precision words and  4276 shell-pairs
 PRISM was handed    33426783 working-precision words and  4276 shell-pairs
 PRISM was handed    33426783 working-precision words and  4276 shell-pairs
 PRISM was handed    33426783 working-precision words and  4276 shell-pairs
 PRISM was handed    33426783 working-precision words and  4276 shell-pairs
 IPart= 15 NShTot=         197 NBatch=          27 AvBLen=         7.3
 IPart= 16 NShTot=         196 NBatch=          27 AvBLen=         7.3
 IPart= 19 NShTot=         195 NBatch=          26 AvBLen=         7.5
 IPart= 18 NShTot=         195 NBatch=          26 AvBLen=         7.5
 IPart= 13 NShTot=         201 NBatch=          28 AvBLen=         7.2
 IPart= 10 NShTot=         208 NBatch=          32 AvBLen=         6.5
 IPart= 12 NShTot=         203 NBatch=          30 AvBLen=         6.8
 IPart=  0 NShTot=         253 NBatch=          64 AvBLen=         4.0
 IPart= 17 NShTot=         196 NBatch=          27 AvBLen=         7.3
 IPart= 11 NShTot=         205 NBatch=          30 AvBLen=         6.8
 IPart=  5 NShTot=         219 NBatch=          41 AvBLen=         5.3
 IPart=  4 NShTot=         235 NBatch=          48 AvBLen=         4.9
 IPart=  2 NShTot=         239 NBatch=          50 AvBLen=         4.8
 IPart=  6 NShTot=         215 NBatch=          37 AvBLen=         5.8
 IPart=  8 NShTot=         211 NBatch=          34 AvBLen=         6.2
 IPart=  7 NShTot=         214 NBatch=          36 AvBLen=         5.9
 IPart= 14 NShTot=         200 NBatch=          28 AvBLen=         7.1
 IPart=  9 NShTot=         210 NBatch=          33 AvBLen=         6.4
 IPart=  1 NShTot=         248 NBatch=          59 AvBLen=         4.2
 IPart=  3 NShTot=         236 NBatch=          48 AvBLen=         4.9
 PrSmSu:  NxtVal=             41.
 Entering OneElI...
 Calculate potential energy integrals
    NBasis = 280  MinDer = 2  MaxDer = 2
 Requested accuracy = 0.1000D-12
 PrmmSu-InSpLW:  IPartL=    0 NPrtUS=   20 NPrtUL=    1 DoSpLW=F IThBeg=    0 IThEnd=   19 NThAct=   20.
 PrsmSu:  NPrtUS=  20 ThrOK=T IAlg=1 NPAlg=1 LenDen=           0 ISkipM=0 DoSpLW=F IThBeg=    0 IThEnd=   19.
 Prism:   IPart=     0 DynPar=F LinDyn=F Incr=          24.
 PRISM was handed    33444810 working-precision words and  4146 shell-pairs
 PRISM was handed    33444810 working-precision words and  4146 shell-pairs
 PRISM was handed    33444810 working-precision words and  4146 shell-pairs
 PRISM was handed    33444810 working-precision words and  4146 shell-pairs
 PRISM was handed    33444810 working-precision words and  4146 shell-pairs
 PRISM was handed    33444810 working-precision words and  4146 shell-pairs
 PRISM was handed    33444810 working-precision words and  4146 shell-pairs
 PRISM was handed    33444810 working-precision words and  4146 shell-pairs
 PRISM was handed    33444810 working-precision words and  4146 shell-pairs
 PRISM was handed    33444810 working-precision words and  4146 shell-pairs
 PRISM was handed    33444810 working-precision words and  4146 shell-pairs
 PRISM was handed    33444810 working-precision words and  4146 shell-pairs
 PRISM was handed    33444810 working-precision words and  4146 shell-pairs
 PRISM was handed    33444810 working-precision words and  4146 shell-pairs
 PRISM was handed    33444810 working-precision words and  4146 shell-pairs
 PRISM was handed    33444810 working-precision words and  4146 shell-pairs
 PRISM was handed    33444810 working-precision words and  4146 shell-pairs
 PRISM was handed    33444810 working-precision words and  4146 shell-pairs
 PRISM was handed    33444810 working-precision words and  4146 shell-pairs
 PRISM was handed    33444810 working-precision words and  4146 shell-pairs
 IPart= 17 NShTot=        2280 NBatch=         190 AvBLen=        12.0
 IPart= 18 NShTot=        2256 NBatch=         188 AvBLen=        12.0
 IPart= 19 NShTot=        2256 NBatch=         188 AvBLen=        12.0
 IPart= 16 NShTot=        2280 NBatch=         190 AvBLen=        12.0
 IPart=  9 NShTot=        2424 NBatch=         202 AvBLen=        12.0
 IPart=  5 NShTot=        2568 NBatch=         214 AvBLen=        12.0
 IPart= 15 NShTot=        2292 NBatch=         191 AvBLen=        12.0
 IPart=  7 NShTot=        2508 NBatch=         209 AvBLen=        12.0
 IPart=  6 NShTot=        2544 NBatch=         212 AvBLen=        12.0
 IPart= 14 NShTot=        2304 NBatch=         192 AvBLen=        12.0
 IPart=  8 NShTot=        2460 NBatch=         205 AvBLen=        12.0
 IPart= 13 NShTot=        2328 NBatch=         194 AvBLen=        12.0
 IPart= 12 NShTot=        2352 NBatch=         196 AvBLen=        12.0
 IPart=  4 NShTot=        2664 NBatch=         222 AvBLen=        12.0
 IPart= 10 NShTot=        2424 NBatch=         202 AvBLen=        12.0
 IPart= 11 NShTot=        2364 NBatch=         197 AvBLen=        12.0
 IPart=  0 NShTot=        3000 NBatch=         250 AvBLen=        12.0
 IPart=  3 NShTot=        2748 NBatch=         229 AvBLen=        12.0
 IPart=  1 NShTot=        2880 NBatch=         240 AvBLen=        12.0
 IPart=  2 NShTot=        2820 NBatch=         235 AvBLen=        12.0
 PrSmSu:  NxtVal=            481.
 Polarizability after L701:
                1             2             3 
      1  0.000000D+00
      2  0.000000D+00  0.000000D+00
      3  0.000000D+00  0.000000D+00  0.000000D+00
 Dipole Derivatives after L701:
                 1             2             3             4             5 
      1  -0.294631D+00  0.199365D+00 -0.448956D+00  0.142575D+00  0.345451D+00
      2   0.161124D+00 -0.143067D+00 -0.378097D+00 -0.329310D+00 -0.543843D+00
      3   0.674378D-01  0.239509D+00 -0.108864D+01  0.708590D-01  0.128920D-01
                 6             7             8             9            10 
      1   0.427766D-01 -0.891300D-01 -0.467002D-01  0.606346D-01 -0.112316D+01
      2  -0.159208D+00 -0.565819D-01 -0.871593D-01  0.212841D-01 -0.291343D-02
      3  -0.150791D+00  0.219406D-02  0.367449D-02 -0.178602D+00 -0.352219D-01
                11            12            13            14            15 
      1  -0.171150D+00  0.465966D+00 -0.514839D+00  0.544862D+00 -0.250643D+00
      2  -0.242316D+00  0.483814D-01  0.155545D-01 -0.114058D+01  0.456450D-01
      3   0.615198D-01 -0.672257D+00 -0.111948D+00 -0.136434D+00 -0.874252D+00
                16            17            18            19            20 
      1   0.783412D-01  0.105949D-01 -0.298115D+00  0.102981D+01  0.383861D-01
      2  -0.790856D-01  0.183157D+00 -0.124687D+00  0.722438D-01  0.152892D+00
      3   0.169214D+00 -0.871885D-01  0.644163D+00 -0.152434D+00  0.921633D-02
                21            22            23            24            25 
      1  -0.447023D-01  0.252768D+00 -0.115712D+00  0.405478D+00  0.201470D+00
      2   0.107741D-01 -0.163616D+00  0.233491D+00 -0.460208D+00 -0.195649D+00
      3   0.147145D+00  0.150733D+00 -0.105935D+00  0.515398D+00 -0.822149D-01
                26            27            28            29            30 
      1  -0.335964D+00 -0.282971D+00  0.221402D+00 -0.166187D+00  0.434131D+00
      2   0.673360D+00  0.485791D+00 -0.110933D+00  0.131776D+00  0.408998D+00
      3   0.217175D+00  0.287592D+00 -0.327389D-01 -0.185344D+00  0.914965D+00
                31            32            33            34            35 
      1  -0.476494D-01 -0.286422D+00 -0.121531D+00  0.143046D+00 -0.165251D-01
      2   0.278739D+00  0.649241D+00  0.134804D+00  0.410428D+00  0.133053D+00
      3  -0.621078D-01 -0.263376D-01  0.310179D+00  0.162282D-01 -0.274706D-02
                36 
      1   0.379325D-01
      2  -0.334786D-01
      3   0.145095D+00
 Hessian after L701:
                1             2             3             4             5 
      1  0.113768D+02
      2  0.602996D+00  0.834562D+01
      3  0.106799D+01 -0.187061D+01  0.746141D+01
      4  0.358520D+00  0.200344D+00  0.160095D+00  0.107959D+02
      5  0.339916D+00 -0.221403D+00  0.996466D-01 -0.134143D+01  0.587642D+01
      6  0.231183D+00  0.679883D-01 -0.301666D+00 -0.255670D+01  0.448383D+01
      7  0.395339D+00  0.636736D+00 -0.736214D-01 -0.795850D+01 -0.484207D+00
      8  0.648688D+00  0.563973D-01 -0.435511D-01 -0.542490D+00 -0.147035D+01
      9 -0.612359D-02  0.936171D-02 -0.467819D+00  0.137321D+01 -0.522465D+01
     10 -0.618499D+01 -0.182218D+01 -0.155017D+01  0.585080D+00 -0.745635D-01
     11 -0.173270D+01 -0.274240D+01  0.323213D+01 -0.150960D+00 -0.378316D+00
     12 -0.148213D+01  0.328507D+01 -0.428778D+01  0.164764D+00 -0.210662D-01
     13 -0.206974D+00  0.688587D-01  0.396051D-01  0.356318D+00 -0.390276D+00
     14  0.658317D-01  0.540914D+00 -0.112759D+00 -0.358354D+00 -0.637561D-01
     15  0.442428D-01  0.262451D-01 -0.293841D+00  0.328842D-01 -0.173110D-01
     16  0.909593D-01  0.130034D+00  0.279711D+00  0.804910D-01 -0.824363D-02
     17  0.882289D-01 -0.462801D-02 -0.205533D+00  0.615217D-02 -0.707218D-01
     18  0.247860D+00 -0.184199D+00 -0.704985D-01 -0.130039D+00 -0.214366D-02
     19  0.338597D+00  0.661707D-01  0.350118D-01  0.670282D-01  0.561502D-02
     20  0.861286D-01 -0.124490D+00 -0.128304D+00 -0.629274D-03 -0.142999D-01
     21  0.296558D-01 -0.126464D+00 -0.451076D-01 -0.233097D-02 -0.448246D-03
     22 -0.320313D-01  0.345275D-02  0.847018D-02  0.284961D-01 -0.268019D-01
     23  0.204701D-01  0.228582D-01 -0.296898D-01 -0.412092D-01 -0.866372D-03
     24 -0.654228D-03 -0.487234D-01 -0.305264D-03  0.479305D-01 -0.246566D-01
     25 -0.456691D-01 -0.403196D-01 -0.120921D-01  0.231822D-01 -0.270583D-01
     26 -0.305332D-01  0.153446D+00  0.743455D-01 -0.497958D-01  0.156326D-01
     27 -0.111138D-01  0.907811D-01 -0.216113D-01 -0.120928D-01  0.754728D-02
     28 -0.629367D+01 -0.311977D-01 -0.173397D+00  0.322454D-01  0.932700D-02
     29 -0.668045D-01 -0.566432D+01 -0.101876D+01 -0.352868D-02 -0.368197D-01
     30 -0.318751D+00 -0.129094D+01 -0.158462D+01  0.100115D+00  0.253430D-01
     31  0.214225D+00  0.825026D-01  0.214572D+00 -0.434667D+01  0.193029D+01
     32 -0.553312D-01 -0.408654D+00 -0.769868D-02  0.227226D+01 -0.359458D+01
     33  0.191733D+00  0.276696D-01 -0.331001D+00  0.830573D+00  0.659990D+00
     34 -0.110732D-01  0.102603D+00  0.382050D-02 -0.221049D-01  0.674306D-01
     35  0.331082D-01  0.466526D-01  0.107916D-01  0.964043D-02 -0.409444D-01
     36  0.610376D-02  0.138298D-01 -0.571604D-01 -0.840433D-02  0.139188D-01
                6             7             8             9            10 
      6  0.930107D+01
      7  0.136907D+01  0.679376D+01
      8 -0.531073D+01  0.324976D+00  0.269749D+01
      9 -0.260322D+01 -0.923103D+00  0.506160D+01  0.459557D+01
     10  0.839539D-01  0.302216D+00  0.169545D+00 -0.170265D+00  0.157697D+02
     11 -0.906993D-02  0.151381D+00 -0.180287D+00 -0.531364D-01  0.686384D+00
     12 -0.366948D+00 -0.124658D+00 -0.363026D-01 -0.193599D+00  0.135270D+01
     13  0.693013D-01  0.993834D-01 -0.280622D+00 -0.794815D-01 -0.524216D+01
     14 -0.381377D-02 -0.795890D-01 -0.522267D-01 -0.230220D-01  0.127909D+01
     15 -0.269678D+00 -0.901500D-01  0.264367D-01 -0.190163D+00 -0.284468D+00
     16 -0.549063D-01  0.166536D-01  0.174242D-01 -0.334694D-01 -0.395508D+01
     17 -0.187816D-02  0.244497D-01 -0.172605D-01 -0.185401D-01 -0.139073D+00
     18 -0.279788D-01 -0.658657D-01 -0.257209D-01  0.202585D-01  0.751389D+00
     19  0.776210D-02  0.468052D-01  0.113284D-01 -0.135332D-01 -0.152657D+01
     20 -0.183725D-02  0.770966D-02 -0.174582D-01  0.997376D-03  0.294705D-01
     21 -0.161290D-01 -0.140794D-01 -0.187672D-02 -0.123397D-01 -0.291395D+00
     22  0.295138D-01  0.789954D-01 -0.288334D-01  0.550033D-01  0.578875D-01
     23 -0.235480D-01 -0.331718D-01 -0.379967D-01 -0.167600D-01 -0.227081D-01
     24  0.592784D-02  0.714606D-01 -0.188376D-01 -0.113915D-01  0.475810D-01
     25 -0.491900D-02  0.465443D-01 -0.681194D-01 -0.518049D-01  0.526415D-01
     26 -0.448937D-03 -0.730039D-01  0.833357D-02  0.470408D-01 -0.111630D-01
     27 -0.189721D-01 -0.599061D-01  0.412765D-01 -0.446372D-02 -0.266429D-01
     28  0.496279D-01  0.284870D-01  0.367459D-01  0.287686D-01  0.646071D-01
     29 -0.405842D-03  0.265520D-01 -0.289373D-01  0.892767D-02  0.288715D-01
     30  0.397254D-01  0.785593D-01  0.474104D-01 -0.102130D-01  0.832775D-01
     31  0.839780D+00  0.201923D+00  0.167941D+00  0.453482D-04  0.312229D-01
     32  0.757601D+00  0.560133D-01  0.485449D-01  0.197639D+00 -0.752828D-01
[...]
    D3        1.18189  -0.00000   0.00000  -0.00340  -0.00340   1.17849
    D4        0.90524  -0.00001   0.00000   0.00250   0.00250   0.90774
    D5       -1.04680  -0.00003   0.00000  -0.01349  -0.01349  -1.06029
    D6        2.09880   0.00000   0.00000   0.00055   0.00055   2.09935
    D7       -2.07073  -0.00001   0.00000   0.00048   0.00048  -2.07025
    D8        0.01137  -0.00000   0.00000   0.00051   0.00051   0.01188
    D9       -2.12927   0.00000   0.00000   0.00052   0.00052  -2.12875
   D10       -0.01562  -0.00001   0.00000   0.00045   0.00045  -0.01517
   D11        2.06648  -0.00000   0.00000   0.00047   0.00047   2.06696
   D12       -0.04091   0.00001   0.00000   0.00051   0.00051  -0.04040
   D13        2.07274  -0.00001   0.00000   0.00044   0.00044   2.07318
   D14       -2.12835  -0.00000   0.00000   0.00047   0.00047  -2.12788
   D15       -0.09658  -0.00001   0.00000   0.00807   0.00807  -0.08851
   D16       -2.22627  -0.00001   0.00000   0.00801   0.00801  -2.21825
   D17        2.03100  -0.00001   0.00000   0.00806   0.00806   2.03905
         Item               Value     Threshold  Converged?
 Maximum Force            0.000048     0.000450     YES
 RMS     Force            0.000016     0.000300     YES
 Maximum Displacement     0.008577     0.001800     NO 
 RMS     Displacement     0.003215     0.001200     NO 
 Predicted change in Energy=-1.860195D-07
                           ----------------------------
                           ! Non-Optimized Parameters !
                           ! (Angstroms and Degrees)  !
 --------------------------                            --------------------------
 ! Name  Definition              Value          Derivative Info.                !
 --------------------------------------------------------------------------------
 ! R1    R(1,4)                  1.4294         -DE/DX =    0.0                 !
 ! R2    R(1,10)                 0.9646         -DE/DX =    0.0                 !
 ! R3    R(2,3)                  1.3073         -DE/DX =    0.0                 !
 ! R4    R(2,11)                 0.9936         -DE/DX =    0.0                 !
 ! R5    R(3,12)                 2.6667         -DE/DX =    0.0                 !
 ! R6    R(4,5)                  1.5321         -DE/DX =    0.0                 !
 ! R7    R(4,6)                  1.0873         -DE/DX =    0.0                 !
 ! R8    R(4,7)                  1.091          -DE/DX =    0.0                 !
 ! R9    R(5,8)                  1.0882         -DE/DX =    0.0                 !
 ! R10   R(5,9)                  1.0881         -DE/DX =    0.0                 !
 ! R11   R(5,12)                 1.0903         -DE/DX =    0.0                 !
 ! A1    A(4,1,10)             108.7744         -DE/DX =    0.0                 !
 ! A2    A(3,2,11)             103.351          -DE/DX =    0.0                 !
 ! A3    A(2,3,12)              85.0898         -DE/DX =    0.0                 !
 ! A4    A(1,4,5)              112.8845         -DE/DX =    0.0                 !
 ! A5    A(1,4,6)              104.9449         -DE/DX =    0.0                 !
 ! A6    A(1,4,7)              108.8135         -DE/DX =    0.0                 !
 ! A7    A(5,4,6)              111.3532         -DE/DX =    0.0                 !
 ! A8    A(5,4,7)              111.1621         -DE/DX =    0.0                 !
 ! A9    A(6,4,7)              107.3537         -DE/DX =    0.0                 !
 ! A10   A(4,5,8)              111.7702         -DE/DX =    0.0                 !
 ! A11   A(4,5,9)              111.8012         -DE/DX =    0.0                 !
 ! A12   A(4,5,12)             109.9297         -DE/DX =    0.0                 !
 ! A13   A(8,5,9)              107.9167         -DE/DX =    0.0                 !
 ! A14   A(8,5,12)             107.7502         -DE/DX =    0.0                 !
 ! A15   A(9,5,12)             107.4898         -DE/DX =    0.0                 !
 ! A16   A(3,12,5)             143.5202         -DE/DX =    0.0                 !
 ! D1    D(10,1,4,5)           -56.3791         -DE/DX =    0.0                 !
 ! D2    D(10,1,4,6)          -177.8273         -DE/DX =    0.0                 !
 ! D3    D(10,1,4,7)            67.5228         -DE/DX =    0.0                 !
 ! D4    D(11,2,3,12)           52.0097         -DE/DX =    0.0                 !
 ! D5    D(2,3,12,5)           -60.7501         -DE/DX =    0.0                 !
 ! D6    D(1,4,5,8)            120.2841         -DE/DX =    0.0                 !
 ! D7    D(1,4,5,9)           -118.6167         -DE/DX =    0.0                 !
 ! D8    D(1,4,5,12)             0.6804         -DE/DX =    0.0                 !
 ! D9    D(6,4,5,8)           -121.9684         -DE/DX =    0.0                 !
 ! D10   D(6,4,5,9)             -0.8692         -DE/DX =    0.0                 !
 ! D11   D(6,4,5,12)           118.4279         -DE/DX =    0.0                 !
 ! D12   D(7,4,5,8)             -2.3148         -DE/DX =    0.0                 !
 ! D13   D(7,4,5,9)            118.7844         -DE/DX =    0.0                 !
 ! D14   D(7,4,5,12)          -121.9185         -DE/DX =    0.0                 !
 ! D15   D(4,5,12,3)            -5.0712         -DE/DX =    0.0                 !
 ! D16   D(8,5,12,3)          -127.0966         -DE/DX =    0.0                 !
 ! D17   D(9,5,12,3)           116.8292         -DE/DX =    0.0                 !
 --------------------------------------------------------------------------------
 GradGradGradGradGradGradGradGradGradGradGradGradGradGradGradGradGradGrad

 Leave Link  103 at Sat Jun 22 14:02:43 2019, MaxMem=   671088640 cpu:               0.5 elap:               0.1
 (Enter /shared/centos7/gaussian/g16/l9999.exe)

 ----------------------------------------------------------------------

 Electric dipole moment (input orientation):
 (Debye = 10**-18 statcoulomb cm , SI units = C m)
                  (au)            (Debye)         (10**-30 SI)
   Tot        0.125973D+01      0.320192D+01      0.106805D+02
   x         -0.121419D+01     -0.308615D+01     -0.102943D+02
   y          0.282785D+00      0.718769D+00      0.239755D+01
   z          0.180872D+00      0.459730D+00      0.153349D+01

 Dipole polarizability, Alpha (input orientation).
 (esu units = cm**3 , SI units = C**2 m**2 J**-1)
 Alpha(0;0):
               (au)            (10**-24 esu)      (10**-40 SI)
   iso        0.405111D+02      0.600313D+01      0.667938D+01
   aniso      0.624854D+01      0.925938D+00      0.103024D+01
   xx         0.423980D+02      0.628274D+01      0.699049D+01
   yx        -0.112264D+01     -0.166358D+00     -0.185098D+00
   yy         0.377431D+02      0.559296D+01      0.622300D+01
   zx        -0.177959D+01     -0.263708D+00     -0.293414D+00
   zy        -0.160881D+01     -0.238401D+00     -0.265257D+00
   zz         0.413922D+02      0.613369D+01      0.682465D+01

 ----------------------------------------------------------------------

 Dipole orientation:
     8         -0.67420765         -2.11236257          0.54798390
     8          0.86716254         -0.45902415         -3.88567404
     8         -1.33703237          0.65077859         -3.99780554
     6          0.07444068         -0.83573699          2.80773372
     6          0.31576332          2.02784377          2.45594519
     1          1.87547818         -1.68074707          3.32193807
     1         -1.26816693         -1.29130791          4.30448402
     1         -0.94952751          3.05923726          3.70662103
     1          2.23176954          2.68258582          2.81421511
     1         -2.23954712         -1.38899944         -0.04312312
     1          0.83160560         -1.32681158         -2.22097912
     1         -0.16141830          2.53985778          0.51800701

 Electric dipole moment (dipole orientation):
 (Debye = 10**-18 statcoulomb cm , SI units = C m)
                  (au)            (Debye)         (10**-30 SI)
   Tot        0.125973D+01      0.320192D+01      0.106805D+02
   x          0.000000D+00      0.000000D+00      0.000000D+00
   y          0.000000D+00      0.000000D+00      0.000000D+00
   z          0.125973D+01      0.320192D+01      0.106805D+02

 Dipole polarizability, Alpha (dipole orientation).
 (esu units = cm**3 , SI units = C**2 m**2 J**-1)
 Alpha(0;0):
               (au)            (10**-24 esu)      (10**-40 SI)
   iso        0.405111D+02      0.600313D+01      0.667938D+01
   aniso      0.624854D+01      0.925938D+00      0.103024D+01
   xx         0.399868D+02      0.592544D+01      0.659294D+01
   yx        -0.252937D+01     -0.374814D+00     -0.417037D+00
   yy         0.385292D+02      0.570944D+01      0.635260D+01
   zx         0.103403D+01      0.153228D+00      0.170489D+00
   zy        -0.552906D+00     -0.819322D-01     -0.911619D-01
   zz         0.430174D+02      0.637451D+01      0.709260D+01

 ----------------------------------------------------------------------

 Test job not archived.
 1\1\GINC-C0134\Freq\UM062X\CC-pVTZ\C2H7O3(2)\HARMS.N\22-Jun-2019\0\\#P
  Geom=AllCheck Guess=TCheck SCRF=Check Test GenChk UM062X/CC-pVTZ Freq
 \\Gaussian input prepared by ASE\\0,2\O,-0.5579314436,-1.0709646458,-0
 .0513131704\O,2.0220132842,-0.6069600012,0.2015891905\O,1.9714487149,-
 0.2795592713,-1.0629997009\C,-1.5083492364,-0.0817822217,0.350573448\C
 ,-1.018258467,1.3491588084,0.1067659409\H,-1.6763807613,-0.2678369589,
 1.4086287585\H,-2.4506857922,-0.2688597048,-0.1663767322\H,-1.67853462
 6,1.892785806,-0.5660819301\H,-0.9451859482,1.9147547477,1.0334573905\
 H,-0.3394513661,-0.9319833979,-0.9805447151\H,1.0825326553,-0.85174948
 5,0.4130195027\H,-0.0259450134,1.3301833246,-0.3446819825\\Version=EM6
 4L-G16RevA.03\State=2-A\HF=-305.9448807\S2=0.755008\S2-1=0.\S2A=0.7500
 14\RMSD=7.300e-10\RMSF=9.251e-06\ZeroPoint=0.0981566\Thermal=0.1051968
 \Dipole=-1.2141861,0.2827853,0.1808717\DipoleDeriv=-1.020446,0.1920035
 ,0.1326653,0.1474535,-0.7646166,-0.1361008,0.0687877,-0.1972684,-0.370
 6663,-0.4255111,-0.000198,0.1195693,-0.0404531,-0.235458,0.1171758,0.0
 406607,0.0903107,-0.5506166,-0.3065664,0.0215668,-0.0292286,-0.0034034
 ,-0.1685906,-0.124192,0.0249338,-0.1001345,0.2120847,0.5829148,-0.1894
 968,-0.102944,-0.2414284,0.6454824,0.1029876,-0.152586,0.1152753,0.324
 563,-0.0312428,-0.0916818,0.0467579,-0.0022481,-0.0988199,-0.0054505,0
 .0340354,0.0301945,0.0338061,0.0391498,0.0094606,0.0053084,0.0018555,-
 0.0022752,0.0310631,0.0598969,0.0344048,-0.1005867,-0.1495453,-0.01474
 65,-0.0384303,-0.002305,-0.0224766,-0.0292874,-0.0879015,-0.0239152,0.
 0082921,-0.0049825,0.0610334,-0.0752557,0.0242367,-0.008871,0.0353972,
 -0.0677391,0.0680336,0.0044875,0.0740413,-0.0091051,-0.0062068,-0.0127
 095,-0.0121958,-0.0400405,-0.0084343,-0.0909062,-0.0588912,0.3596313,0
 .0455861,0.0174158,0.056085,0.3001459,0.0810358,-0.0143374,0.0819623,0
 .2385144,0.9056723,-0.0070235,-0.1190031,0.0661356,0.3251657,-0.018543
 7,0.0537088,-0.0128709,0.2206856,-0.0231154,-0.0173986,0.0493518,0.006
 7812,0.0425097,-0.0140448,0.0489751,0.0049142,0.0383275\Polar=42.39802
 34,-1.1226364,37.7431327,-1.7795871,-1.6088086,41.3922096\Quadrupole=-
 1.9190682,0.1858911,1.7331771,-0.8677429,1.173906,0.6195762\PG=C01 [X(
 C2H7O3)]\NImag=1\\0.24619716,-0.11748805,0.23254245,-0.15356157,-0.040
 24243,0.58320348,-0.03627733,-0.00234617,-0.00525594,0.45476302,-0.006
 92357,0.00430902,0.00087975,0.09475553,0.06771098,0.00044545,0.0002317
 4,0.00249205,-0.02499934,-0.13698902,0.50004199,-0.00223074,-0.0006884
 0,0.00289607,-0.05131681,0.00285181,-0.04364276,0.04577424,-0.00063137
 ,0.00142769,0.00017724,-0.01236516,-0.03612189,0.11232682,0.00961996,0
 .04017416,-0.00314328,-0.00016540,0.00163250,0.01064810,0.12298106,-0.
 45287369,-0.00898080,-0.13411650,0.49581133,-0.14432558,0.07087824,0.0
 4265455,0.00056743,-0.00080548,-0.00061038,0.00109890,0.00069160,-0.00
 011282,0.55061376,0.08208693,-0.13999601,-0.03789796,-0.00609758,-0.00
 159484,0.00075200,-0.00148547,-0.00144931,-0.00062000,0.02700324,0.452
 65603,0.01547024,-0.00411936,-0.10393006,-0.00454632,-0.00180931,0.000
 04843,0.00031568,0.00033197,-0.00032131,0.02357610,-0.01915685,0.63129
 951,0.00452785,0.02742201,-0.00016557,-0.00001974,-0.00022568,0.000270
 12,0.00047762,-0.00015215,-0.00016564,-0.09492051,-0.04435176,0.007062
 83,0.56093629,0.00124864,-0.03347531,0.00109700,0.00037475,0.00001628,
 -0.00031959,0.00054483,-0.00018440,0.00012408,-0.04090111,-0.17450330,
 0.01886455,-0.03556105,0.49697207,0.00143897,-0.01121461,0.00396591,-0
 .00007532,0.00050743,0.00078467,0.00000131,-0.00001664,-0.00063962,0.0
 0581045,0.02227146,-0.08484660,0.00779333,0.01682656,0.57034298,-0.009
 12573,0.00243501,0.03241573,-0.00018221,0.00001541,-0.00008717,-0.0003
 2191,-0.00014613,-0.00006005,-0.05621385,-0.00796517,0.02400399,0.0004
 8364,-0.00330154,0.01171281,0.06220633,0.01092806,-0.00051918,-0.03109
 899,0.00018046,-0.00006199,-0.00009430,0.00026889,0.00027293,0.0000495
 9,-0.00921360,-0.05590531,0.05547490,-0.00504884,-0.00771222,0.0260412
 7,0.00198559,0.06952178,0.00737457,-0.00366251,-0.01058783,0.00030553,
 0.00002639,0.00008902,0.00019048,0.00009638,-0.00008548,0.03473024,0.0
 4669914,-0.30961855,-0.00124061,0.00064951,-0.00144374,-0.04250165,-0.
 04574769,0.33234457,-0.02956537,0.01108073,-0.00519894,-0.00150619,-0.
 00050583,0.00021116,-0.00009614,0.00002646,-0.00018916,-0.23437414,-0.
 04469487,-0.10659547,-0.00604134,-0.00316028,-0.00720570,0.00584153,0.
 00005820,0.00087876,0.26223382,0.03379398,-0.00366992,0.00951516,0.001
 72365,0.00059482,-0.00014300,0.00000421,0.00009403,0.00018836,-0.04709
 861,-0.05705081,-0.02671377,-0.02385780,-0.00745269,-0.01184671,0.0042
 7845,0.00221039,0.00327476,0.03811146,0.07033783,0.01559412,-0.0012318
 9,0.01016020,0.00073827,0.00028280,-0.00008311,0.00001649,-0.00003066,
 0.00008289,-0.11303412,-0.02292021,-0.12273755,0.00642818,0.00314670,0
 .00505382,-0.02796275,-0.00599950,-0.01503993,0.11687168,0.02575353,0.
 12039329,0.00082853,-0.00005189,0.00057076,-0.00003292,0.00014826,0.00
 043033,-0.00006723,0.00018545,-0.00022674,0.00580050,-0.00808344,0.009
 08189,-0.15028830,0.08385031,-0.10569670,-0.00065114,-0.00173346,0.000
 96150,0.00162460,-0.00000022,0.00013182,0.16073762,-0.00032098,-0.0057
 1714,-0.00053281,0.00016521,0.00014142,-0.00005570,0.00007541,0.000040
 75,0.00001397,0.01866948,-0.01185622,0.01848872,0.08124132,-0.11209982
 ,0.08213986,-0.00124488,-0.00285913,0.00043210,0.00043062,0.00130154,-
 0.00058025,-0.08729918,0.12304915,-0.00008763,-0.00098573,-0.00017647,
 0.00001363,-0.00005770,-0.00006815,0.00000745,-0.00006104,0.00005975,-
 0.00080803,0.00107008,-0.00332786,-0.10533978,0.08306425,-0.15232292,0
 .00046914,0.00124021,0.00057050,0.00036924,-0.00034050,0.00135009,0.11
 528320,-0.09068028,0.16057832,0.00027362,0.00069159,-0.00084087,0.0002
 0832,-0.00024431,-0.00045998,-0.00032882,0.00020031,0.00035040,-0.0033
 9117,-0.00589409,-0.00820537,-0.04629649,-0.00788222,-0.01535033,0.001
 31529,0.00035578,-0.00004980,-0.00068974,-0.00193120,0.00054925,-0.000
 81484,-0.01154448,-0.01853085,0.04597009,0.00105905,-0.00565630,0.0005
 2911,0.00036774,0.00012393,0.00006892,0.00005676,0.00005652,-0.0000160
 9,-0.00219429,-0.01222698,-0.02542075,-0.00879236,-0.11751811,-0.11939
 304,0.00077630,0.00131090,-0.00008143,-0.00133909,-0.00274894,0.000755
 79,-0.00022236,0.00883885,0.01440858,0.01124184,0.12873774,-0.00039781
 ,0.00090134,0.00028818,-0.00002177,0.00009819,0.00020386,0.00015921,-0
 .00010180,-0.00014372,0.00090245,0.00555730,0.00657254,-0.01542079,-0.
 12146956,-0.25040006,-0.00017774,0.00034150,0.00176824,0.00108616,0.00
 043397,0.00049648,0.00024875,-0.00966960,-0.01670438,0.01553422,0.1291
 2487,0.26917294,-0.04765849,0.00725230,0.08518423,-0.00261052,-0.00121
 208,0.00174079,0.00189221,0.00166245,-0.00017048,-0.00856384,-0.000996
 13,0.02980374,0.00118809,-0.00015117,-0.00098090,-0.00296959,0.0031660
 7,0.00039204,-0.00012519,-0.00092016,0.00058889,-0.00025414,0.00013694
 ,0.00001746,-0.00018909,-0.00033343,-0.00002283,0.05608467,-0.00340180
 ,-0.04371386,0.10044555,0.00005253,0.00039036,0.00105403,0.00081511,-0
 .00141856,-0.00071002,0.00976163,0.00171052,-0.03237150,0.00091156,0.0
 0115579,-0.00087807,0.00391706,-0.00346080,-0.00169528,-0.00013783,0.0
 0051145,0.00078023,0.00012136,0.00014903,-0.00005952,-0.00070103,0.000
 09101,0.00049708,-0.00917461,0.04460242,0.11014075,0.06355468,-0.47988
 522,0.00083371,0.00093899,-0.00213957,0.00179577,-0.00039595,0.0004112
 4,0.00295511,0.00199577,-0.01092383,-0.00159027,0.00040746,0.00089257,
 0.00148217,-0.00147614,0.00219863,-0.00105948,0.00100652,0.00117862,-0
 .00047000,0.00055177,-0.00001718,-0.00007217,0.00069631,0.00001778,-0.
 10911152,-0.06644083,0.49249029,0.01494424,-0.00244409,0.00243671,-0.3
 6281000,-0.08827024,0.06656135,0.00597846,0.00066491,0.00206666,-0.006
 03468,0.01018690,0.00671493,0.00072221,-0.00038103,-0.00049309,0.00023
 208,-0.00053978,-0.00052025,0.00257721,-0.00254883,-0.00062587,-0.0000
 2684,-0.00066422,0.00009606,-0.00006659,-0.00076684,-0.00009547,0.0028
 8390,-0.00074541,-0.00487607,0.34080234,-0.00051340,-0.00985473,-0.003
 24560,-0.07757275,-0.03506924,0.02337018,-0.01212124,-0.00309695,0.012
 13480,0.00260612,0.00273061,0.00302648,0.00055725,-0.00004382,-0.00092
 379,-0.00001111,0.00010058,-0.00013837,0.00068602,-0.00096862,-0.00045
 604,-0.00054571,-0.00016333,0.00013926,0.00022978,-0.00028009,-0.00011
 375,0.00114877,0.00124198,0.00015184,0.08566354,0.04597957,0.00752937,
 -0.00139799,-0.00862684,0.02223090,0.01338588,-0.04705311,0.04706685,0
 .02194029,-0.04492559,0.00013053,0.00262245,0.00259186,-0.00021902,-0.
 00018008,-0.00008780,0.00059826,-0.00013399,-0.00042167,0.00073402,-0.
 00067227,-0.00035400,-0.00000397,-0.00013537,-0.00010440,0.00024315,-0
 .00032663,-0.00014767,-0.00714211,-0.00066173,-0.00471485,-0.07102173,
 -0.03499895,0.10364149,0.00241184,0.00325874,-0.00113515,-0.00078305,0
 .00041618,0.00014044,-0.00085979,0.00024367,-0.00001620,-0.01025681,0.
 00029145,0.00331776,-0.27076934,0.00531987,0.10304516,-0.00061444,-0.0
 0040737,-0.00052079,0.00012096,-0.00155493,0.00070403,-0.01685583,0.00
 035477,0.00851010,0.00400943,0.00014668,-0.00179437,0.00032200,-0.0014
 1855,-0.00002798,0.00079767,-0.00012726,-0.00014625,0.29247736,0.00016
 251,0.00432328,0.00037398,0.00076181,-0.00043884,-0.00020208,0.0000581
 3,0.00020503,0.00013615,-0.02939720,-0.00251437,0.01340492,0.00785750,
 -0.04515448,-0.00351373,-0.00073900,-0.00289795,0.00014698,-0.00055559
 ,-0.00315906,0.00049951,0.01363090,-0.00082510,-0.00773761,0.01547804,
 -0.00072854,-0.00559954,-0.00057893,-0.00125933,-0.00099041,-0.0001549
 1,-0.00057596,0.00055837,-0.00652324,0.05302534,-0.00080317,-0.0016678
 3,0.00146409,0.00012855,-0.00024444,-0.00144238,0.00017427,-0.00015010
 ,0.00099171,0.00380591,-0.00037318,-0.00480657,0.10258723,-0.00221090,
 -0.09129921,0.00010726,0.00140312,0.00022624,0.00009772,-0.00045605,-0
 .00050081,-0.02031084,0.00002760,0.01016269,0.02683234,-0.00034566,-0.
 01112418,-0.00029931,0.00004006,0.00049152,-0.00024323,0.00105393,0.00
 020257,-0.11207674,0.00292344,0.09563432\\0.00000716,-0.00001090,0.000
 00165,-0.00001091,-0.00002373,0.00000868,0.00000122,0.00002034,-0.0000
 1599,0.00001325,-0.00000105,-0.00001144,-0.00000147,0.00001207,0.00001
 244,-0.00000206,0.00000789,0.00000070,-0.00000127,-0.00000322,0.000003
 92,0.00000434,0.00000186,-0.00000242,0.00000146,0.00000290,-0.00000317
 ,0.00000292,0.00000556,-0.00000309,0.00000168,-0.00000767,0.00001652,-
 0.00001632,-0.00000405,-0.00000779\\\@


 A SCIENTIST IS SOMEONE WHOSE CURIOSITY SURVIVES
 EDUCATION'S ASSAULTS ON IT.
                          - SIR HERMANN BONDI
 Job cpu time:       0 days  1 hours 29 minutes 29.7 seconds.
 Elapsed time:       0 days  0 hours  4 minutes 29.3 seconds.
 File lengths (MBytes):  RWF=   1360 Int=      0 D2E=      0 Chk=     32 Scr=     32
 Normal termination of Gaussian 16 at Sat Jun 22 14:02:43 2019.
