 Entering Gaussian System, Link 0=g16
 Input=/scratch/harms.n//autotst-2.0-QMScratch/ts/CCO+[O]O_OO+[CH2]CO/conformers/CCO+[O]O_OO+[CH2]CO_reverse_shell_1.com
 Output=/scratch/harms.n//autotst-2.0-QMScratch/ts/CCO+[O]O_OO+[CH2]CO/conformers/CCO+[O]O_OO+[CH2]CO_reverse_shell_1.log
 Initial command:
 /shared/centos7/gaussian/g16/l1.exe "/scratch/harms.n/gauss_scrdir/Gau-18543.inp" -scrdir="/scratch/harms.n/gauss_scrdir/"
 Entering Link 1 = /shared/centos7/gaussian/g16/l1.exe PID=     18544.
  
 Copyright (c) 1988,1990,1992,1993,1995,1998,2003,2009,2016,
            Gaussian, Inc.  All Rights Reserved.
  
 This is part of the Gaussian(R) 16 program.  It is based on
 the Gaussian(R) 09 system (copyright 2009, Gaussian, Inc.),
 the Gaussian(R) 03 system (copyright 2003, Gaussian, Inc.),
 the Gaussian(R) 98 system (copyright 1998, Gaussian, Inc.),
 the Gaussian(R) 94 system (copyright 1995, Gaussian, Inc.),
 the Gaussian 92(TM) system (copyright 1992, Gaussian, Inc.),
 the Gaussian 90(TM) system (copyright 1990, Gaussian, Inc.),
 the Gaussian 88(TM) system (copyright 1988, Gaussian, Inc.),
 the Gaussian 86(TM) system (copyright 1986, Carnegie Mellon
 University), and the Gaussian 82(TM) system (copyright 1983,
 Carnegie Mellon University). Gaussian is a federally registered
 trademark of Gaussian, Inc.
  
 This software contains proprietary and confidential information,
 including trade secrets, belonging to Gaussian, Inc.
  
 This software is provided under written license and may be
 used, copied, transmitted, or stored only in accord with that
 written license.
  
 The following legend is applicable only to US Government
 contracts under FAR:
  
                    RESTRICTED RIGHTS LEGEND
  
 Use, reproduction and disclosure by the US Government is
 subject to restrictions as set forth in subparagraphs (a)
 and (c) of the Commercial Computer Software - Restricted
 Rights clause in FAR 52.227-19.
  
 Gaussian, Inc.
 340 Quinnipiac St., Bldg. 40, Wallingford CT 06492
  
  
 ---------------------------------------------------------------
 Warning -- This program may not be used in any manner that
 competes with the business of Gaussian, Inc. or will provide
 assistance to any competitor of Gaussian, Inc.  The licensee
 of this program is prohibited from giving any competitor of
 Gaussian, Inc. access to this program.  By using this program,
 the user acknowledges that Gaussian, Inc. is engaged in the
 business of creating and licensing software in the field of
 computational chemistry and represents and warrants to the
 licensee that it is not a competitor of Gaussian, Inc. and that
 it will not use this program in any manner prohibited above.
 ---------------------------------------------------------------
  

 Cite this work as:
 Gaussian 16, Revision A.03,
 M. J. Frisch, G. W. Trucks, H. B. Schlegel, G. E. Scuseria, 
 M. A. Robb, J. R. Cheeseman, G. Scalmani, V. Barone, 
 G. A. Petersson, H. Nakatsuji, X. Li, M. Caricato, A. V. Marenich, 
 J. Bloino, B. G. Janesko, R. Gomperts, B. Mennucci, H. P. Hratchian, 
 J. V. Ortiz, A. F. Izmaylov, J. L. Sonnenberg, D. Williams-Young, 
 F. Ding, F. Lipparini, F. Egidi, J. Goings, B. Peng, A. Petrone, 
 T. Henderson, D. Ranasinghe, V. G. Zakrzewski, J. Gao, N. Rega, 
 G. Zheng, W. Liang, M. Hada, M. Ehara, K. Toyota, R. Fukuda, 
 J. Hasegawa, M. Ishida, T. Nakajima, Y. Honda, O. Kitao, H. Nakai, 
 T. Vreven, K. Throssell, J. A. Montgomery, Jr., J. E. Peralta, 
 F. Ogliaro, M. J. Bearpark, J. J. Heyd, E. N. Brothers, K. N. Kudin, 
 V. N. Staroverov, T. A. Keith, R. Kobayashi, J. Normand, 
 K. Raghavachari, A. P. Rendell, J. C. Burant, S. S. Iyengar, 
 J. Tomasi, M. Cossi, J. M. Millam, M. Klene, C. Adamo, R. Cammi, 
 J. W. Ochterski, R. L. Martin, K. Morokuma, O. Farkas, 
 J. B. Foresman, and D. J. Fox, Gaussian, Inc., Wallingford CT, 2016.
 
 ******************************************
 Gaussian 16:  EM64L-G16RevA.03 25-Dec-2016
                22-Jun-2019 
 ******************************************
 %nprocshared=20
 Will use up to   20 processors via shared memory.
 %mem=5GB
 ----------------------------------------------------------------------
 #p m062x/cc-pVTZ Opt=(ModRedun,Loose,maxcycles=900) Int(Grid=SG1) scf=
 (maxcycle=900)
 ----------------------------------------------------------------------
 1/6=900,7=-1,18=120,19=15,26=2,38=1/1,3;
 2/9=110,12=2,17=6,18=5,40=1/2;
 3/5=16,6=1,11=2,25=1,30=1,71=1,74=-55,75=1/1,2,3;
 4//1;
 5/5=2,7=900,38=5/2;
 6/7=2,8=2,9=2,10=2,28=1/1;
 7//1,2,3,16;
 1/6=900,7=-1,18=20,19=15,26=2/3(2);
 2/9=110/2;
 99//99;
 2/9=110/2;
 3/5=16,6=1,11=2,25=1,30=1,71=1,74=-55,75=1/1,2,3;
 4/5=5,16=3,69=1/1;
 5/5=2,7=900,38=5/2;
 7//1,2,3,16;
 1/6=900,7=-1,18=20,19=15,26=2/3(-5);
 2/9=110/2;
 6/7=2,8=2,9=2,10=2,19=2,28=1/1;
 99/9=1/99;
 Leave Link    1 at Sat Jun 22 12:34:37 2019, MaxMem=   671088640 cpu:              17.2 elap:               0.9
 (Enter /shared/centos7/gaussian/g16/l101.exe)
 ------------------------------
 Gaussian input prepared by ASE
 ------------------------------
 Symbolic Z-matrix:
 Charge =  0 Multiplicity = 2
 O                    -1.62226   0.09929   7.86269 
 O                    -2.37175  -2.45161   6.57736 
 O                    -1.21176  -2.88207   7.02639 
 C                    -0.28143   0.25913   7.48761 
 C                     0.39399  -1.06834   7.17486 
 H                     0.27036   0.77457   8.30103 
 H                    -0.21589   0.92723   6.59961 
 H                     1.19701  -0.92585   6.42092 
 H                     0.84888  -1.50644   8.08834 
 H                    -1.96038   1.00563   8.086 
 H                    -2.75701  -1.97679   7.35663 
 H                    -0.35474  -1.85059   6.76561 
 
 Add virtual bond connecting atoms H12        and O3         Dist= 2.58D+00.
 The following ModRedundant input section has been read:
 B       3      12 F                                                           
 B       5      12 F                                                           
 A       3      12       5 F                                                   
 
 ITRead=  0  0  0  0  0  0  0  0  0  0  0  0
 MicOpt= -1 -1 -1 -1 -1 -1 -1 -1 -1 -1 -1 -1
 NAtoms=     12 NQM=       12 NQMF=       0 NMMI=      0 NMMIF=      0
                NMic=       0 NMicF=      0.
                    Isotopes and Nuclear Properties:
 (Nuclear quadrupole moments (NQMom) in fm**2, nuclear magnetic moments (NMagM)
  in nuclear magnetons)

  Atom         1           2           3           4           5           6           7           8           9          10
 IAtWgt=          16          16          16          12          12           1           1           1           1           1
 AtmWgt=  15.9949146  15.9949146  15.9949146  12.0000000  12.0000000   1.0078250   1.0078250   1.0078250   1.0078250   1.0078250
 NucSpn=           0           0           0           0           0           1           1           1           1           1
 AtZEff=  -0.0000000  -0.0000000  -0.0000000  -0.0000000  -0.0000000  -0.0000000  -0.0000000  -0.0000000  -0.0000000  -0.0000000
 NQMom=    0.0000000   0.0000000   0.0000000   0.0000000   0.0000000   0.0000000   0.0000000   0.0000000   0.0000000   0.0000000
 NMagM=    0.0000000   0.0000000   0.0000000   0.0000000   0.0000000   2.7928460   2.7928460   2.7928460   2.7928460   2.7928460
 AtZNuc=   8.0000000   8.0000000   8.0000000   6.0000000   6.0000000   1.0000000   1.0000000   1.0000000   1.0000000   1.0000000

  Atom        11          12
 IAtWgt=           1           1
 AtmWgt=   1.0078250   1.0078250
 NucSpn=           1           1
 AtZEff=  -0.0000000  -0.0000000
 NQMom=    0.0000000   0.0000000
 NMagM=    2.7928460   2.7928460
 AtZNuc=   1.0000000   1.0000000
 Leave Link  101 at Sat Jun 22 12:34:37 2019, MaxMem=   671088640 cpu:               5.6 elap:               0.3
 (Enter /shared/centos7/gaussian/g16/l103.exe)

 GradGradGradGradGradGradGradGradGradGradGradGradGradGradGradGradGradGrad
 Berny optimization.
 Initialization pass.
                           ----------------------------
                           !    Initial Parameters    !
                           ! (Angstroms and Degrees)  !
 --------------------------                            --------------------------
 ! Name  Definition              Value          Derivative Info.                !
 --------------------------------------------------------------------------------
 ! R1    R(1,4)                  1.4014         estimate D2E/DX2                !
 ! R2    R(1,10)                 0.9928         estimate D2E/DX2                !
 ! R3    R(2,3)                  1.3162         estimate D2E/DX2                !
 ! R4    R(2,11)                 0.9905         estimate D2E/DX2                !
 ! R5    R(3,12)                 1.3662         Frozen                          !
 ! R6    R(4,5)                  1.5219         estimate D2E/DX2                !
 ! R7    R(4,6)                  1.1099         estimate D2E/DX2                !
 ! R8    R(4,7)                  1.1132         estimate D2E/DX2                !
 ! R9    R(5,8)                  1.1107         estimate D2E/DX2                !
 ! R10   R(5,9)                  1.1105         estimate D2E/DX2                !
 ! R11   R(5,12)                 1.1576         Frozen                          !
 ! A1    A(4,1,10)             106.3752         estimate D2E/DX2                !
 ! A2    A(3,2,11)             103.3645         estimate D2E/DX2                !
 ! A3    A(2,3,12)             103.9342         estimate D2E/DX2                !
 ! A4    A(1,4,5)              112.341          estimate D2E/DX2                !
 ! A5    A(1,4,6)              109.4195         estimate D2E/DX2                !
 ! A6    A(1,4,7)              109.7714         estimate D2E/DX2                !
 ! A7    A(5,4,6)              109.5758         estimate D2E/DX2                !
 ! A8    A(5,4,7)              109.4777         estimate D2E/DX2                !
 ! A9    A(6,4,7)              106.0599         estimate D2E/DX2                !
 ! A10   A(4,5,8)              110.3935         estimate D2E/DX2                !
 ! A11   A(4,5,9)              110.9069         estimate D2E/DX2                !
 ! A12   A(4,5,12)             112.0265         estimate D2E/DX2                !
 ! A13   A(8,5,9)              108.229          estimate D2E/DX2                !
 ! A14   A(8,5,12)             108.3215         estimate D2E/DX2                !
 ! A15   A(9,5,12)             106.8077         estimate D2E/DX2                !
 ! A16   A(3,12,5)             148.0456         Frozen                          !
 ! D1    D(10,1,4,5)           177.3809         estimate D2E/DX2                !
 ! D2    D(10,1,4,6)            55.4446         estimate D2E/DX2                !
 ! D3    D(10,1,4,7)           -60.559          estimate D2E/DX2                !
 ! D4    D(11,2,3,12)          -88.5788         estimate D2E/DX2                !
 ! D5    D(2,3,12,5)           121.0977         estimate D2E/DX2                !
 ! D6    D(1,4,5,8)            150.6372         estimate D2E/DX2                !
 ! D7    D(1,4,5,9)            -89.411          estimate D2E/DX2                !
 ! D8    D(1,4,5,12)            29.8282         estimate D2E/DX2                !
 ! D9    D(6,4,5,8)            -87.5153         estimate D2E/DX2                !
 ! D10   D(6,4,5,9)             32.4364         estimate D2E/DX2                !
 ! D11   D(6,4,5,12)           151.6756         estimate D2E/DX2                !
 ! D12   D(7,4,5,8)             28.4105         estimate D2E/DX2                !
 ! D13   D(7,4,5,9)            148.3623         estimate D2E/DX2                !
 ! D14   D(7,4,5,12)           -92.3985         estimate D2E/DX2                !
 ! D15   D(4,5,12,3)           -92.6543         estimate D2E/DX2                !
 ! D16   D(8,5,12,3)           145.3443         estimate D2E/DX2                !
 ! D17   D(9,5,12,3)            28.969          estimate D2E/DX2                !
 --------------------------------------------------------------------------------
 Trust Radius=3.00D-01 FncErr=1.00D-05 GrdErr=1.00D-04 EigMax=2.50D+02 EigMin=1.00D-04
 Number of steps in this run=    100 maximum allowed number of steps=    100.
 GradGradGradGradGradGradGradGradGradGradGradGradGradGradGradGradGradGrad

 Leave Link  103 at Sat Jun 22 12:34:37 2019, MaxMem=   671088640 cpu:               0.6 elap:               0.1
 (Enter /shared/centos7/gaussian/g16/l202.exe)
                          Input orientation:                          
 ---------------------------------------------------------------------
 Center     Atomic      Atomic             Coordinates (Angstroms)
 Number     Number       Type             X           Y           Z
 ---------------------------------------------------------------------
      1          8           0       -1.622257    0.099289    7.862685
      2          8           0       -2.371750   -2.451606    6.577357
      3          8           0       -1.211763   -2.882067    7.026394
      4          6           0       -0.281425    0.259128    7.487610
      5          6           0        0.393987   -1.068335    7.174864
      6          1           0        0.270363    0.774567    8.301030
      7          1           0       -0.215891    0.927229    6.599612
      8          1           0        1.197011   -0.925846    6.420923
      9          1           0        0.848883   -1.506438    8.088341
     10          1           0       -1.960383    1.005631    8.085998
     11          1           0       -2.757005   -1.976788    7.356628
     12          1           0       -0.354737   -1.850587    6.765611
 ---------------------------------------------------------------------
                    Distance matrix (angstroms):
                    1          2          3          4          5
     1  O    0.000000
     2  O    2.953112   0.000000
     3  O    3.123518   1.316245   0.000000
     4  C    1.401449   3.542047   3.308376   0.000000
     5  C    2.429338   3.149564   2.426952   1.521891   0.000000
     6  H    2.056735   4.512207   4.146368   1.109865   2.163290
     7  H    2.063663   4.008086   3.960384   1.113191   2.164519
     8  H    3.328341   3.884388   3.161580   2.174341   1.110666
     9  H    2.955641   3.680883   2.695617   2.180756   1.110543
    10  H    0.992801   3.794431   4.098461   1.932416   3.267194
    11  H    2.419472   0.990523   1.821087   3.338409   3.284368
    12  H    2.571418   2.113055   1.366181   2.231044   1.157581
                    6          7          8          9         10
     6  H    0.000000
     7  H    1.776112   0.000000
     8  H    2.699053   2.337116   0.000000
     9  H    2.362817   3.045126   1.799601   0.000000
    10  H    2.252967   2.293194   4.058598   3.768617   0.000000
    11  H    4.198430   3.932385   4.196936   3.709321   3.171973
    12  H    3.104787   2.786234   1.838989   1.821197   3.532633
                   11         12
    11  H    0.000000
    12  H    2.477119   0.000000
 Stoichiometry    C2H7O3(2)
 Framework group  C1[X(C2H7O3)]
 Deg. of freedom    30
 Full point group                 C1      NOp   1
 Largest Abelian subgroup         C1      NOp   1
 Largest concise Abelian subgroup C1      NOp   1
                         Standard orientation:                         
 ---------------------------------------------------------------------
 Center     Atomic      Atomic             Coordinates (Angstroms)
 Number     Number       Type             X           Y           Z
 ---------------------------------------------------------------------
      1          8           0        0.993744   -1.152400   -0.204770
      2          8           0       -1.857921   -0.592552    0.320060
      3          8           0       -1.621380    0.553933   -0.281704
      4          6           0        1.620690    0.051323    0.144585
      5          6           0        0.683641    1.245314    0.032892
      6          1           0        2.504508    0.209940   -0.507723
      7          1           0        2.013305   -0.016434    1.184036
      8          1           0        0.971030    2.032375    0.761947
      9          1           0        0.721824    1.685083   -0.986152
     10          1           0        1.689057   -1.858356   -0.142963
     11          1           0       -1.422549   -1.256243   -0.272479
     12          1           0       -0.418710    0.951962    0.229774
 ---------------------------------------------------------------------
 Rotational constants (GHZ):           7.1581864           2.9050704           2.1959538
 Leave Link  202 at Sat Jun 22 12:34:37 2019, MaxMem=   671088640 cpu:               0.9 elap:               0.1
 (Enter /shared/centos7/gaussian/g16/l301.exe)
 Standard basis: CC-pVTZ (5D, 7F)
 Ernie: Thresh=  0.10000D-02 Tol=  0.10000D-05 Strict=F.
 Ernie:  15 primitive shells out of 186 were deleted.
 There are   280 symmetry adapted cartesian basis functions of A   symmetry.
 There are   248 symmetry adapted basis functions of A   symmetry.
   248 basis functions,   379 primitive gaussians,   280 cartesian basis functions
    22 alpha electrons       21 beta electrons
       nuclear repulsion energy       190.2030456291 Hartrees.
 IExCor= 4336 DFT=T Ex+Corr=M062X ExCW=0 ScaHFX=  0.540000
 ScaDFX=  1.000000  1.000000  1.000000  1.000000 ScalE2=  1.000000  1.000000
 IRadAn=      1 IRanWt=     -1 IRanGd=            0 ICorTp=0 IEmpDi=  4
 NAtoms=   12 NActive=   12 NUniq=   12 SFac= 1.00D+00 NAtFMM=   60 NAOKFM=F Big=F
 Integral buffers will be    131072 words long.
 Raffenetti 2 integral format.
 Two-electron integral symmetry is turned on.
 Leave Link  301 at Sat Jun 22 12:34:37 2019, MaxMem=   671088640 cpu:               1.5 elap:               0.1
 (Enter /shared/centos7/gaussian/g16/l302.exe)
 NPDir=0 NMtPBC=     1 NCelOv=     1 NCel=       1 NClECP=     1 NCelD=      1
         NCelK=      1 NCelE2=     1 NClLst=     1 CellRange=     0.0.
 One-electron integrals computed using PRISM.
 One-electron integral symmetry used in STVInt
 NBasis=   248 RedAO= T EigKep=  8.99D-04  NBF=   248
 NBsUse=   248 1.00D-06 EigRej= -1.00D+00 NBFU=   248
 Precomputing XC quadrature grid using
 IXCGrd= 4 IRadAn=           1 IRanWt=          -1 IRanGd=           0 AccXCQ= 0.00D+00.
 Generated NRdTot=       0 NPtTot=           0 NUsed=           0 NTot=          32
 NSgBfM=   280   280   280   280   280 MxSgAt=    12 MxSgA2=    12.
 Leave Link  302 at Sat Jun 22 12:34:38 2019, MaxMem=   671088640 cpu:               6.1 elap:               0.3
 (Enter /shared/centos7/gaussian/g16/l303.exe)
 DipDrv:  MaxL=1.
 Leave Link  303 at Sat Jun 22 12:34:38 2019, MaxMem=   671088640 cpu:               1.0 elap:               0.1
 (Enter /shared/centos7/gaussian/g16/l401.exe)
 ExpMin= 1.03D-01 ExpMax= 1.53D+04 ExpMxC= 5.22D+02 IAcc=1 IRadAn=         1 AccDes= 0.00D+00
 Harris functional with IExCor= 1009 and IRadAn=       1 diagonalized for initial guess.
 HarFok:  IExCor= 1009 AccDes= 0.00D+00 IRadAn=         1 IDoV= 1 UseB2=F ITyADJ=14
 ICtDFT=  3500011 ScaDFX=  1.000000  1.000000  1.000000  1.000000
 FoFCou: FMM=F IPFlag=           0 FMFlag=      100000 FMFlg1=           0
         NFxFlg=           0 DoJE=T BraDBF=F KetDBF=T FulRan=T
         wScrn=  0.000000 ICntrl=       500 IOpCl=  0 I1Cent=   200000004 NGrid=           0
         NMat0=    1 NMatS0=      1 NMatT0=    0 NMatD0=    1 NMtDS0=    0 NMtDT0=    0
 Petite list used in FoFCou.
 Harris En= -305.783542022358    
 JPrj=0 DoOrth=F DoCkMO=F.
 Initial guess <Sx>= 0.0000 <Sy>= 0.0000 <Sz>= 0.5000 <S**2>= 0.7500 S= 0.5000
 Leave Link  401 at Sat Jun 22 12:34:38 2019, MaxMem=   671088640 cpu:              10.7 elap:               0.6
 (Enter /shared/centos7/gaussian/g16/l502.exe)
 Integral symmetry usage will be decided dynamically.
 UHF open shell SCF:
 Using DIIS extrapolation, IDIIS=  1040.
 NGot=   671088640 LenX=   670923676 LenY=   670844835
 Requested convergence on RMS density matrix=1.00D-08 within 900 cycles.
 Requested convergence on MAX density matrix=1.00D-06.
 Requested convergence on             energy=1.00D-06.
 No special actions if energy rises.
 Fock matrices will be formed incrementally for  20 cycles.

 Cycle   1  Pass 1  IDiag  1:
 FoFJK:  IHMeth= 1 ICntrl=       0 DoSepK=F KAlg= 0 I1Cent=           0 FoldK=F
 IRaf= 980000000 NMat=       1 IRICut=       1 DoRegI=T DoRafI=F ISym2E= 0 IDoP0=0 IntGTp=1.
 FoFCou: FMM=F IPFlag=           0 FMFlag=      100000 FMFlg1=           0
         NFxFlg=           0 DoJE=F BraDBF=F KetDBF=F FulRan=T
         wScrn=  0.000000 ICntrl=         0 IOpCl=  1 I1Cent=           0 NGrid=           0
         NMat0=    1 NMatS0=      1 NMatT0=    0 NMatD0=    1 NMtDS0=    0 NMtDT0=    0
 Symmetry not used in FoFCou.
 E= -305.735599407088    
 DIIS: error= 2.37D-02 at cycle   1 NSaved=   1.
 NSaved= 1 IEnMin= 1 EnMin= -305.735599407088     IErMin= 1 ErrMin= 2.37D-02
 ErrMax= 2.37D-02  0.00D+00 EMaxC= 1.00D-01 BMatC= 8.68D-01 BMatP= 8.68D-01
 IDIUse=3 WtCom= 7.63D-01 WtEn= 2.37D-01
 Coeff-Com:  0.100D+01
 Coeff-En:   0.100D+01
 Coeff:      0.100D+01
 Gap=     0.393 Goal=   None    Shift=    0.000
 Gap=     0.299 Goal=   None    Shift=    0.000
 GapD=    0.299 DampG=1.000 DampE=0.500 DampFc=0.5000 IDamp=-1.
 Damping current iteration by 5.00D-01
 RMSDP=2.31D-03 MaxDP=9.11D-02              OVMax= 2.13D-01

 Cycle   2  Pass 1  IDiag  1:
 RMSU=  1.15D-03    CP:  1.00D+00
 E= -305.814478995671     Delta-E=       -0.078879588583 Rises=F Damp=T
 DIIS: error= 8.03D-03 at cycle   2 NSaved=   2.
 NSaved= 2 IEnMin= 2 EnMin= -305.814478995671     IErMin= 2 ErrMin= 8.03D-03
 ErrMax= 8.03D-03  0.00D+00 EMaxC= 1.00D-01 BMatC= 8.02D-02 BMatP= 8.68D-01
 IDIUse=3 WtCom= 9.20D-01 WtEn= 8.03D-02
 Coeff-Com: -0.592D-01 0.106D+01
 Coeff-En:   0.000D+00 0.100D+01
 Coeff:     -0.544D-01 0.105D+01
 Gap=     0.384 Goal=   None    Shift=    0.000
 Gap=     0.287 Goal=   None    Shift=    0.000
 RMSDP=4.90D-04 MaxDP=1.32D-02 DE=-7.89D-02 OVMax= 1.16D-01

 Cycle   3  Pass 1  IDiag  1:
 RMSU=  4.78D-04    CP:  1.00D+00  9.15D-01
 E= -305.895509035571     Delta-E=       -0.081030039900 Rises=F Damp=F
 DIIS: error= 3.36D-03 at cycle   3 NSaved=   3.
 NSaved= 3 IEnMin= 3 EnMin= -305.895509035571     IErMin= 3 ErrMin= 3.36D-03
 ErrMax= 3.36D-03  0.00D+00 EMaxC= 1.00D-01 BMatC= 2.35D-02 BMatP= 8.02D-02
 IDIUse=3 WtCom= 9.66D-01 WtEn= 3.36D-02
 Coeff-Com: -0.873D-01 0.359D+00 0.728D+00
 Coeff-En:   0.000D+00 0.000D+00 0.100D+01
 Coeff:     -0.844D-01 0.347D+00 0.737D+00
 Gap=     0.374 Goal=   None    Shift=    0.000
 Gap=     0.278 Goal=   None    Shift=    0.000
 RMSDP=2.16D-04 MaxDP=9.19D-03 DE=-8.10D-02 OVMax= 2.94D-02

 Cycle   4  Pass 1  IDiag  1:
 RMSU=  1.67D-04    CP:  1.00D+00  1.00D+00  8.05D-01
 E= -305.898968271850     Delta-E=       -0.003459236279 Rises=F Damp=F
 DIIS: error= 1.88D-03 at cycle   4 NSaved=   4.
 NSaved= 4 IEnMin= 4 EnMin= -305.898968271850     IErMin= 4 ErrMin= 1.88D-03
 ErrMax= 1.88D-03  0.00D+00 EMaxC= 1.00D-01 BMatC= 6.63D-03 BMatP= 2.35D-02
 IDIUse=3 WtCom= 9.81D-01 WtEn= 1.88D-02
 Coeff-Com: -0.368D-01 0.894D-01 0.389D+00 0.558D+00
 Coeff-En:   0.000D+00 0.000D+00 0.856D-01 0.914D+00
 Coeff:     -0.361D-01 0.878D-01 0.383D+00 0.565D+00
 Gap=     0.372 Goal=   None    Shift=    0.000
 Gap=     0.275 Goal=   None    Shift=    0.000
 RMSDP=8.54D-05 MaxDP=3.45D-03 DE=-3.46D-03 OVMax= 8.84D-03

 Cycle   5  Pass 1  IDiag  1:
 RMSU=  6.86D-05    CP:  1.00D+00  1.00D+00  8.79D-01  7.84D-01
 E= -305.900025110625     Delta-E=       -0.001056838775 Rises=F Damp=F
 DIIS: error= 7.13D-04 at cycle   5 NSaved=   5.
 NSaved= 5 IEnMin= 5 EnMin= -305.900025110625     IErMin= 5 ErrMin= 7.13D-04
 ErrMax= 7.13D-04  0.00D+00 EMaxC= 1.00D-01 BMatC= 4.52D-04 BMatP= 6.63D-03
 IDIUse=3 WtCom= 9.93D-01 WtEn= 7.13D-03
 Coeff-Com: -0.617D-02 0.433D-02 0.986D-01 0.223D+00 0.680D+00
 Coeff-En:   0.000D+00 0.000D+00 0.000D+00 0.000D+00 0.100D+01
 Coeff:     -0.612D-02 0.430D-02 0.979D-01 0.222D+00 0.682D+00
 Gap=     0.372 Goal=   None    Shift=    0.000
 Gap=     0.279 Goal=   None    Shift=    0.000
 RMSDP=3.40D-05 MaxDP=2.24D-03 DE=-1.06D-03 OVMax= 9.40D-03

 Cycle   6  Pass 1  IDiag  1:
 RMSU=  3.00D-05    CP:  1.00D+00  1.00D+00  9.00D-01  8.52D-01  9.32D-01
 E= -305.900166705777     Delta-E=       -0.000141595152 Rises=F Damp=F
 DIIS: error= 3.30D-04 at cycle   6 NSaved=   6.
 NSaved= 6 IEnMin= 6 EnMin= -305.900166705777     IErMin= 6 ErrMin= 3.30D-04
 ErrMax= 3.30D-04  0.00D+00 EMaxC= 1.00D-01 BMatC= 1.60D-04 BMatP= 4.52D-04
 IDIUse=3 WtCom= 9.97D-01 WtEn= 3.30D-03
 Coeff-Com:  0.719D-02-0.212D-01-0.548D-01-0.897D-01 0.282D+00 0.877D+00
 Coeff-En:   0.000D+00 0.000D+00 0.000D+00 0.000D+00 0.000D+00 0.100D+01
 Coeff:      0.716D-02-0.212D-01-0.547D-01-0.894D-01 0.281D+00 0.877D+00
 Gap=     0.374 Goal=   None    Shift=    0.000
 Gap=     0.279 Goal=   None    Shift=    0.000
 RMSDP=2.86D-05 MaxDP=1.51D-03 DE=-1.42D-04 OVMax= 4.62D-03

 Cycle   7  Pass 1  IDiag  1:
 RMSU=  1.32D-05    CP:  1.00D+00  9.99D-01  9.09D-01  9.21D-01  1.24D+00
                    CP:  1.24D+00
 E= -305.900235102661     Delta-E=       -0.000068396884 Rises=F Damp=F
 DIIS: error= 1.12D-04 at cycle   7 NSaved=   7.
 NSaved= 7 IEnMin= 7 EnMin= -305.900235102661     IErMin= 7 ErrMin= 1.12D-04
 ErrMax= 1.12D-04  0.00D+00 EMaxC= 1.00D-01 BMatC= 2.29D-05 BMatP= 1.60D-04
 IDIUse=3 WtCom= 9.99D-01 WtEn= 1.12D-03
 Coeff-Com:  0.406D-02-0.738D-02-0.405D-01-0.103D+00-0.699D-01 0.220D+00
 Coeff-Com:  0.997D+00
 Coeff-En:   0.000D+00 0.000D+00 0.000D+00 0.000D+00 0.000D+00 0.000D+00
 Coeff-En:   0.100D+01
 Coeff:      0.406D-02-0.737D-02-0.404D-01-0.103D+00-0.699D-01 0.219D+00
 Coeff:      0.997D+00
 Gap=     0.374 Goal=   None    Shift=    0.000
 Gap=     0.280 Goal=   None    Shift=    0.000
 RMSDP=1.84D-05 MaxDP=1.08D-03 DE=-6.84D-05 OVMax= 3.90D-03

 Cycle   8  Pass 1  IDiag  1:
 RMSU=  6.90D-06    CP:  1.00D+00  9.99D-01  9.15D-01  9.52D-01  1.39D+00
                    CP:  1.60D+00  1.36D+00
 E= -305.900255898937     Delta-E=       -0.000020796276 Rises=F Damp=F
 DIIS: error= 5.58D-05 at cycle   8 NSaved=   8.
 NSaved= 8 IEnMin= 8 EnMin= -305.900255898937     IErMin= 8 ErrMin= 5.58D-05
 ErrMax= 5.58D-05  0.00D+00 EMaxC= 1.00D-01 BMatC= 5.28D-06 BMatP= 2.29D-05
 IDIUse=1 WtCom= 1.00D+00 WtEn= 0.00D+00
 Coeff-Com: -0.600D-04 0.146D-02 0.286D-03-0.153D-01-0.500D-01-0.913D-01
 Coeff-Com:  0.274D+00 0.881D+00
 Coeff:     -0.600D-04 0.146D-02 0.286D-03-0.153D-01-0.500D-01-0.913D-01
 Coeff:      0.274D+00 0.881D+00
 Gap=     0.374 Goal=   None    Shift=    0.000
 Gap=     0.280 Goal=   None    Shift=    0.000
 RMSDP=7.70D-06 MaxDP=4.50D-04 DE=-2.08D-05 OVMax= 1.98D-03

 Cycle   9  Pass 1  IDiag  1:
 RMSU=  3.71D-06    CP:  1.00D+00  9.99D-01  9.17D-01  9.60D-01  1.43D+00
                    CP:  1.72D+00  1.66D+00  1.44D+00
 E= -305.900260076935     Delta-E=       -0.000004177998 Rises=F Damp=F
 DIIS: error= 3.80D-05 at cycle   9 NSaved=   9.
 NSaved= 9 IEnMin= 9 EnMin= -305.900260076935     IErMin= 9 ErrMin= 3.80D-05
 ErrMax= 3.80D-05  0.00D+00 EMaxC= 1.00D-01 BMatC= 1.53D-06 BMatP= 5.28D-06
 IDIUse=1 WtCom= 1.00D+00 WtEn= 0.00D+00
 Coeff-Com: -0.123D-02 0.258D-02 0.148D-01 0.297D-01 0.120D-01-0.120D+00
 Coeff-Com: -0.245D+00 0.309D+00 0.999D+00
 Coeff:     -0.123D-02 0.258D-02 0.148D-01 0.297D-01 0.120D-01-0.120D+00
 Coeff:     -0.245D+00 0.309D+00 0.999D+00
 Gap=     0.374 Goal=   None    Shift=    0.000
 Gap=     0.280 Goal=   None    Shift=    0.000
 RMSDP=6.43D-06 MaxDP=3.41D-04 DE=-4.18D-06 OVMax= 2.09D-03

 Cycle  10  Pass 1  IDiag  1:
 RMSU=  2.28D-06    CP:  1.00D+00  9.99D-01  9.18D-01  9.66D-01  1.45D+00
                    CP:  1.80D+00  1.88D+00  2.00D+00  1.42D+00
 E= -305.900262160636     Delta-E=       -0.000002083701 Rises=F Damp=F
 DIIS: error= 2.69D-05 at cycle  10 NSaved=  10.
 NSaved=10 IEnMin=10 EnMin= -305.900262160636     IErMin=10 ErrMin= 2.69D-05
 ErrMax= 2.69D-05  0.00D+00 EMaxC= 1.00D-01 BMatC= 3.39D-07 BMatP= 1.53D-06
 IDIUse=1 WtCom= 1.00D+00 WtEn= 0.00D+00
 Coeff-Com:  0.130D-03-0.418D-03-0.490D-03 0.524D-03 0.739D-02 0.176D-01
 Coeff-Com: -0.280D-01-0.178D+00-0.395D-02 0.119D+01
 Coeff:      0.130D-03-0.418D-03-0.490D-03 0.524D-03 0.739D-02 0.176D-01
 Coeff:     -0.280D-01-0.178D+00-0.395D-02 0.119D+01
 Gap=     0.374 Goal=   None    Shift=    0.000
 Gap=     0.280 Goal=   None    Shift=    0.000
 RMSDP=4.05D-06 MaxDP=2.19D-04 DE=-2.08D-06 OVMax= 1.43D-03

 Cycle  11  Pass 1  IDiag  1:
 RMSU=  1.05D-06    CP:  1.00D+00  9.99D-01  9.18D-01  9.68D-01  1.46D+00
                    CP:  1.83D+00  1.98D+00  2.31D+00  1.97D+00  1.81D+00
 E= -305.900262992720     Delta-E=       -0.000000832084 Rises=F Damp=F
 DIIS: error= 1.74D-05 at cycle  11 NSaved=  11.
 NSaved=11 IEnMin=11 EnMin= -305.900262992720     IErMin=11 ErrMin= 1.74D-05
 ErrMax= 1.74D-05  0.00D+00 EMaxC= 1.00D-01 BMatC= 1.56D-07 BMatP= 3.39D-07
 IDIUse=1 WtCom= 1.00D+00 WtEn= 0.00D+00
 Coeff-Com:  0.455D-03-0.959D-03-0.549D-02-0.110D-01-0.450D-02 0.459D-01
 Coeff-Com:  0.927D-01-0.118D+00-0.386D+00-0.105D-01 0.140D+01
 Coeff:      0.455D-03-0.959D-03-0.549D-02-0.110D-01-0.450D-02 0.459D-01
 Coeff:      0.927D-01-0.118D+00-0.386D+00-0.105D-01 0.140D+01
 Gap=     0.374 Goal=   None    Shift=    0.000
 Gap=     0.280 Goal=   None    Shift=    0.000
 RMSDP=4.08D-06 MaxDP=2.11D-04 DE=-8.32D-07 OVMax= 1.46D-03

 Cycle  12  Pass 1  IDiag  1:
 RMSU=  5.90D-07    CP:  1.00D+00  9.99D-01  9.19D-01  9.69D-01  1.46D+00
                    CP:  1.86D+00  2.06D+00  2.58D+00  2.47D+00  2.89D+00
                    CP:  2.10D+00
 E= -305.900263561526     Delta-E=       -0.000000568806 Rises=F Damp=F
 DIIS: error= 1.03D-05 at cycle  12 NSaved=  12.
 NSaved=12 IEnMin=12 EnMin= -305.900263561526     IErMin=12 ErrMin= 1.03D-05
 ErrMax= 1.03D-05  0.00D+00 EMaxC= 1.00D-01 BMatC= 6.52D-08 BMatP= 1.56D-07
 IDIUse=1 WtCom= 1.00D+00 WtEn= 0.00D+00
 Coeff-Com:  0.193D-04 0.311D-04-0.121D-02-0.278D-02-0.476D-02 0.334D-02
 Coeff-Com:  0.341D-01 0.661D-01-0.105D+00-0.558D+00 0.217D+00 0.135D+01
 Coeff:      0.193D-04 0.311D-04-0.121D-02-0.278D-02-0.476D-02 0.334D-02
 Coeff:      0.341D-01 0.661D-01-0.105D+00-0.558D+00 0.217D+00 0.135D+01
 Gap=     0.374 Goal=   None    Shift=    0.000
 Gap=     0.280 Goal=   None    Shift=    0.000
 RMSDP=3.66D-06 MaxDP=1.92D-04 DE=-5.69D-07 OVMax= 1.29D-03

 Cycle  13  Pass 1  IDiag  1:
 RMSU=  2.07D-06    CP:  1.00D+00  9.99D-01  9.19D-01  9.70D-01  1.47D+00
                    CP:  1.88D+00  2.12D+00  2.80D+00  2.90D+00  3.00D+00
                    CP:  3.00D+00  1.94D+00
 E= -305.900263837611     Delta-E=       -0.000000276085 Rises=F Damp=F
 DIIS: error= 4.35D-06 at cycle  13 NSaved=  13.
 NSaved=13 IEnMin=13 EnMin= -305.900263837611     IErMin=13 ErrMin= 4.35D-06
 ErrMax= 4.35D-06  0.00D+00 EMaxC= 1.00D-01 BMatC= 1.73D-08 BMatP= 6.52D-08
 IDIUse=1 WtCom= 1.00D+00 WtEn= 0.00D+00
 Coeff-Com: -0.186D-03 0.410D-03 0.172D-02 0.345D-02 0.479D-03-0.171D-01
 Coeff-Com: -0.271D-01 0.706D-01 0.111D+00-0.110D+00-0.516D+00 0.326D+00
 Coeff-Com:  0.116D+01
 Coeff:     -0.186D-03 0.410D-03 0.172D-02 0.345D-02 0.479D-03-0.171D-01
 Coeff:     -0.271D-01 0.706D-01 0.111D+00-0.110D+00-0.516D+00 0.326D+00
 Coeff:      0.116D+01
 Gap=     0.374 Goal=   None    Shift=    0.000
 Gap=     0.280 Goal=   None    Shift=    0.000
 RMSDP=1.95D-06 MaxDP=1.02D-04 DE=-2.76D-07 OVMax= 6.66D-04

 Cycle  14  Pass 1  IDiag  1:
 RMSU=  6.73D-07    CP:  1.00D+00  9.99D-01  9.19D-01  9.71D-01  1.47D+00
                    CP:  1.89D+00  2.15D+00  2.91D+00  3.00D+00  3.00D+00
                    CP:  3.00D+00  2.78D+00  1.65D+00
 E= -305.900263893265     Delta-E=       -0.000000055654 Rises=F Damp=F
 DIIS: error= 1.24D-06 at cycle  14 NSaved=  14.
 NSaved=14 IEnMin=14 EnMin= -305.900263893265     IErMin=14 ErrMin= 1.24D-06
 ErrMax= 1.24D-06  0.00D+00 EMaxC= 1.00D-01 BMatC= 1.60D-09 BMatP= 1.73D-08
 IDIUse=1 WtCom= 1.00D+00 WtEn= 0.00D+00
 Coeff-Com:  0.291D-05-0.106D-04 0.106D-03 0.210D-03 0.759D-03-0.305D-03
 Coeff-Com: -0.417D-02-0.832D-02 0.629D-02 0.893D-01-0.305D-01-0.224D+00
 Coeff-Com:  0.198D-01 0.115D+01
 Coeff:      0.291D-05-0.106D-04 0.106D-03 0.210D-03 0.759D-03-0.305D-03
 Coeff:     -0.417D-02-0.832D-02 0.629D-02 0.893D-01-0.305D-01-0.224D+00
 Coeff:      0.198D-01 0.115D+01
 Gap=     0.374 Goal=   None    Shift=    0.000
 Gap=     0.280 Goal=   None    Shift=    0.000
 RMSDP=5.12D-07 MaxDP=2.68D-05 DE=-5.57D-08 OVMax= 1.67D-04

 Cycle  15  Pass 1  IDiag  1:
 RMSU=  1.19D-07    CP:  1.00D+00  9.99D-01  9.19D-01  9.71D-01  1.47D+00
                    CP:  1.89D+00  2.16D+00  2.94D+00  3.00D+00  3.00D+00
                    CP:  3.00D+00  3.00D+00  1.82D+00  1.33D+00
 E= -305.900263896952     Delta-E=       -0.000000003687 Rises=F Damp=F
 DIIS: error= 3.29D-07 at cycle  15 NSaved=  15.
 NSaved=15 IEnMin=15 EnMin= -305.900263896952     IErMin=15 ErrMin= 3.29D-07
 ErrMax= 3.29D-07  0.00D+00 EMaxC= 1.00D-01 BMatC= 1.61D-10 BMatP= 1.60D-09
 IDIUse=1 WtCom= 1.00D+00 WtEn= 0.00D+00
 Coeff-Com:  0.225D-04-0.494D-04-0.219D-03-0.425D-03-0.601D-04 0.212D-02
 Coeff-Com:  0.351D-02-0.846D-02-0.151D-01 0.150D-01 0.663D-01-0.408D-01
 Coeff-Com: -0.160D+00 0.214D-01 0.112D+01
 Coeff:      0.225D-04-0.494D-04-0.219D-03-0.425D-03-0.601D-04 0.212D-02
 Coeff:      0.351D-02-0.846D-02-0.151D-01 0.150D-01 0.663D-01-0.408D-01
 Coeff:     -0.160D+00 0.214D-01 0.112D+01
 Gap=     0.374 Goal=   None    Shift=    0.000
 Gap=     0.280 Goal=   None    Shift=    0.000
 RMSDP=9.77D-08 MaxDP=4.55D-06 DE=-3.69D-09 OVMax= 2.72D-05

 Cycle  16  Pass 1  IDiag  1:
 RMSU=  4.22D-08    CP:  1.00D+00  9.99D-01  9.19D-01  9.71D-01  1.47D+00
                    CP:  1.89D+00  2.16D+00  2.94D+00  3.00D+00  3.00D+00
                    CP:  3.00D+00  3.00D+00  1.85D+00  1.40D+00  1.28D+00
 E= -305.900263897128     Delta-E=       -0.000000000176 Rises=F Damp=F
 DIIS: error= 8.24D-08 at cycle  16 NSaved=  16.
 NSaved=16 IEnMin=16 EnMin= -305.900263897128     IErMin=16 ErrMin= 8.24D-08
 ErrMax= 8.24D-08  0.00D+00 EMaxC= 1.00D-01 BMatC= 9.13D-12 BMatP= 1.61D-10
 IDIUse=1 WtCom= 1.00D+00 WtEn= 0.00D+00
 Coeff-Com: -0.251D-05 0.521D-05 0.723D-05 0.188D-04-0.348D-04-0.116D-03
 Coeff-Com:  0.737D-04 0.102D-02 0.190D-03-0.703D-02-0.336D-03 0.186D-01
 Coeff-Com:  0.333D-02-0.802D-01-0.498D-01 0.111D+01
 Coeff:     -0.251D-05 0.521D-05 0.723D-05 0.188D-04-0.348D-04-0.116D-03
 Coeff:      0.737D-04 0.102D-02 0.190D-03-0.703D-02-0.336D-03 0.186D-01
 Coeff:      0.333D-02-0.802D-01-0.498D-01 0.111D+01
 Gap=     0.374 Goal=   None    Shift=    0.000
 Gap=     0.280 Goal=   None    Shift=    0.000
 RMSDP=1.39D-08 MaxDP=6.49D-07 DE=-1.76D-10 OVMax= 1.82D-06

 Cycle  17  Pass 1  IDiag  1:
 RMSU=  8.94D-09    CP:  1.00D+00  9.99D-01  9.19D-01  9.71D-01  1.47D+00
                    CP:  1.89D+00  2.16D+00  2.94D+00  3.00D+00  3.00D+00
                    CP:  3.00D+00  3.00D+00  1.85D+00  1.40D+00  1.34D+00
                    CP:  1.18D+00
 E= -305.900263897126     Delta-E=        0.000000000003 Rises=F Damp=F
 DIIS: error= 2.69D-08 at cycle  17 NSaved=  17.
 NSaved=17 IEnMin=16 EnMin= -305.900263897128     IErMin=17 ErrMin= 2.69D-08
 ErrMax= 2.69D-08  0.00D+00 EMaxC= 1.00D-01 BMatC= 1.07D-12 BMatP= 9.13D-12
 IDIUse=1 WtCom= 1.00D+00 WtEn= 0.00D+00
 Coeff-Com: -0.141D-05 0.318D-05 0.148D-04 0.251D-04 0.842D-05-0.155D-03
 Coeff-Com: -0.237D-03 0.549D-03 0.111D-02-0.108D-02-0.459D-02 0.228D-02
 Coeff-Com:  0.123D-01 0.298D-03-0.931D-01-0.257D-01 0.111D+01
 Coeff:     -0.141D-05 0.318D-05 0.148D-04 0.251D-04 0.842D-05-0.155D-03
 Coeff:     -0.237D-03 0.549D-03 0.111D-02-0.108D-02-0.459D-02 0.228D-02
 Coeff:      0.123D-01 0.298D-03-0.931D-01-0.257D-01 0.111D+01
 Gap=     0.374 Goal=   None    Shift=    0.000
 Gap=     0.280 Goal=   None    Shift=    0.000
 RMSDP=4.66D-09 MaxDP=1.79D-07 DE= 2.84D-12 OVMax= 7.00D-07

 SCF Done:  E(UM062X) =  -305.900263897     A.U. after   17 cycles
            NFock= 17  Conv=0.47D-08     -V/T= 2.0052
 <Sx>= 0.0000 <Sy>= 0.0000 <Sz>= 0.5000 <S**2>= 0.7555 S= 0.5028
 <L.S>= 0.000000000000E+00
 KE= 3.043252034624D+02 PE=-1.099743843332D+03 EE= 2.993153303437D+02
 Annihilation of the first spin contaminant:
 S**2 before annihilation     0.7555,   after     0.7500
 Leave Link  502 at Sat Jun 22 12:35:22 2019, MaxMem=   671088640 cpu:             866.2 elap:              43.4
 (Enter /shared/centos7/gaussian/g16/l601.exe)
 Copying SCF densities to generalized density rwf, IOpCl= 1 IROHF=0.

 **********************************************************************

            Population analysis using the SCF density.

 **********************************************************************

 Orbital symmetries:
 Alpha Orbitals:
       Occupied  (A) (A) (A) (A) (A) (A) (A) (A) (A) (A) (A) (A)
                 (A) (A) (A) (A) (A) (A) (A) (A) (A) (A)
       Virtual   (A) (A) (A) (A) (A) (A) (A) (A) (A) (A) (A) (A)
                 (A) (A) (A) (A) (A) (A) (A) (A) (A) (A) (A) (A)
                 (A) (A) (A) (A) (A) (A) (A) (A) (A) (A) (A) (A)
                 (A) (A) (A) (A) (A) (A) (A) (A) (A) (A) (A) (A)
                 (A) (A) (A) (A) (A) (A) (A) (A) (A) (A) (A) (A)
                 (A) (A) (A) (A) (A) (A) (A) (A) (A) (A) (A) (A)
                 (A) (A) (A) (A) (A) (A) (A) (A) (A) (A) (A) (A)
                 (A) (A) (A) (A) (A) (A) (A) (A) (A) (A) (A) (A)
                 (A) (A) (A) (A) (A) (A) (A) (A) (A) (A) (A) (A)
                 (A) (A) (A) (A) (A) (A) (A) (A) (A) (A) (A) (A)
                 (A) (A) (A) (A) (A) (A) (A) (A) (A) (A) (A) (A)
                 (A) (A) (A) (A) (A) (A) (A) (A) (A) (A) (A) (A)
                 (A) (A) (A) (A) (A) (A) (A) (A) (A) (A) (A) (A)
                 (A) (A) (A) (A) (A) (A) (A) (A) (A) (A) (A) (A)
                 (A) (A) (A) (A) (A) (A) (A) (A) (A) (A) (A) (A)
                 (A) (A) (A) (A) (A) (A) (A) (A) (A) (A) (A) (A)
                 (A) (A) (A) (A) (A) (A) (A) (A) (A) (A) (A) (A)
                 (A) (A) (A) (A) (A) (A) (A) (A) (A) (A) (A) (A)
                 (A) (A) (A) (A) (A) (A) (A) (A) (A) (A)
 Beta  Orbitals:
       Occupied  (A) (A) (A) (A) (A) (A) (A) (A) (A) (A) (A) (A)
                 (A) (A) (A) (A) (A) (A) (A) (A) (A)
       Virtual   (A) (A) (A) (A) (A) (A) (A) (A) (A) (A) (A) (A)
                 (A) (A) (A) (A) (A) (A) (A) (A) (A) (A) (A) (A)
                 (A) (A) (A) (A) (A) (A) (A) (A) (A) (A) (A) (A)
                 (A) (A) (A) (A) (A) (A) (A) (A) (A) (A) (A) (A)
                 (A) (A) (A) (A) (A) (A) (A) (A) (A) (A) (A) (A)
                 (A) (A) (A) (A) (A) (A) (A) (A) (A) (A) (A) (A)
                 (A) (A) (A) (A) (A) (A) (A) (A) (A) (A) (A) (A)
                 (A) (A) (A) (A) (A) (A) (A) (A) (A) (A) (A) (A)
                 (A) (A) (A) (A) (A) (A) (A) (A) (A) (A) (A) (A)
                 (A) (A) (A) (A) (A) (A) (A) (A) (A) (A) (A) (A)
                 (A) (A) (A) (A) (A) (A) (A) (A) (A) (A) (A) (A)
                 (A) (A) (A) (A) (A) (A) (A) (A) (A) (A) (A) (A)
                 (A) (A) (A) (A) (A) (A) (A) (A) (A) (A) (A) (A)
                 (A) (A) (A) (A) (A) (A) (A) (A) (A) (A) (A) (A)
                 (A) (A) (A) (A) (A) (A) (A) (A) (A) (A) (A) (A)
                 (A) (A) (A) (A) (A) (A) (A) (A) (A) (A) (A) (A)
                 (A) (A) (A) (A) (A) (A) (A) (A) (A) (A) (A) (A)
                 (A) (A) (A) (A) (A) (A) (A) (A) (A) (A) (A) (A)
                 (A) (A) (A) (A) (A) (A) (A) (A) (A) (A) (A)
 The electronic state is 2-A.
 Alpha  occ. eigenvalues --  -19.72315 -19.70177 -19.63353 -10.58886 -10.52556
 Alpha  occ. eigenvalues --   -1.32733  -1.15448  -0.98337  -0.84130  -0.70464
 Alpha  occ. eigenvalues --   -0.64118  -0.61034  -0.59072  -0.56206  -0.54006
 Alpha  occ. eigenvalues --   -0.48677  -0.44041  -0.43525  -0.40436  -0.37998
 Alpha  occ. eigenvalues --   -0.34987  -0.32657
 Alpha virt. eigenvalues --    0.04735   0.08463   0.09947   0.11876   0.13272
 Alpha virt. eigenvalues --    0.17164   0.19160   0.21271   0.22378   0.24111
 Alpha virt. eigenvalues --    0.30079   0.31859   0.34728   0.37889   0.40092
 Alpha virt. eigenvalues --    0.41301   0.41987   0.45257   0.48760   0.49457
 Alpha virt. eigenvalues --    0.51395   0.51851   0.52538   0.54486   0.55564
 Alpha virt. eigenvalues --    0.56333   0.59653   0.61527   0.63274   0.66115
 Alpha virt. eigenvalues --    0.69949   0.70973   0.71979   0.74046   0.74936
 Alpha virt. eigenvalues --    0.80007   0.83483   0.84905   0.89413   0.92632
 Alpha virt. eigenvalues --    0.95698   0.99520   1.00760   1.03766   1.04920
 Alpha virt. eigenvalues --    1.08199   1.08823   1.11545   1.12070   1.13405
 Alpha virt. eigenvalues --    1.15037   1.18067   1.20313   1.23313   1.26080
 Alpha virt. eigenvalues --    1.28973   1.31300   1.32888   1.34721   1.36833
 Alpha virt. eigenvalues --    1.37789   1.41219   1.43397   1.47909   1.51374
 Alpha virt. eigenvalues --    1.54006   1.56481   1.59486   1.65230   1.72081
 Alpha virt. eigenvalues --    1.77426   1.87717   1.92649   1.95471   1.97196
 Alpha virt. eigenvalues --    2.02340   2.03039   2.09790   2.15861   2.17167
 Alpha virt. eigenvalues --    2.19163   2.23762   2.25125   2.32056   2.32221
 Alpha virt. eigenvalues --    2.35486   2.44610   2.47847   2.49757   2.53619
 Alpha virt. eigenvalues --    2.58952   2.60700   2.64373   2.69781   2.78400
 Alpha virt. eigenvalues --    2.83050   2.86690   2.90344   2.92393   2.93133
 Alpha virt. eigenvalues --    2.95806   2.98350   2.98948   3.02592   3.03666
 Alpha virt. eigenvalues --    3.07089   3.09283   3.11275   3.15656   3.17658
 Alpha virt. eigenvalues --    3.20927   3.23793   3.25444   3.28800   3.33113
 Alpha virt. eigenvalues --    3.35239   3.37581   3.38609   3.39144   3.40825
 Alpha virt. eigenvalues --    3.44258   3.48245   3.50053   3.53280   3.56322
 Alpha virt. eigenvalues --    3.58147   3.59638   3.62723   3.65061   3.67443
 Alpha virt. eigenvalues --    3.70843   3.72368   3.72881   3.76237   3.78629
 Alpha virt. eigenvalues --    3.80017   3.81556   3.82578   3.84874   3.87318
 Alpha virt. eigenvalues --    3.89978   3.91950   3.95753   3.97792   3.98811
 Alpha virt. eigenvalues --    4.00249   4.02469   4.05924   4.07050   4.09323
 Alpha virt. eigenvalues --    4.10202   4.13195   4.15252   4.18709   4.21231
 Alpha virt. eigenvalues --    4.30270   4.31365   4.34792   4.37131   4.42568
 Alpha virt. eigenvalues --    4.47717   4.54549   4.56348   4.60897   4.62918
 Alpha virt. eigenvalues --    4.68049   4.71160   4.76110   4.79043   4.84314
 Alpha virt. eigenvalues --    4.85095   4.89286   4.91765   4.93044   4.95907
 Alpha virt. eigenvalues --    4.99409   5.04718   5.08446   5.11205   5.14179
 Alpha virt. eigenvalues --    5.14868   5.20209   5.25498   5.27652   5.37442
 Alpha virt. eigenvalues --    5.41497   5.52736   5.54904   5.59465   5.69115
 Alpha virt. eigenvalues --    5.71249   5.80110   5.82818   5.88336   5.96106
 Alpha virt. eigenvalues --    6.02002   6.10662   6.16419   6.26242   6.29901
 Alpha virt. eigenvalues --    6.32094   6.36854   6.39722   6.41288   6.46965
 Alpha virt. eigenvalues --    6.53172   6.54791   6.59209   6.63558   6.64702
 Alpha virt. eigenvalues --    6.76735   6.81367   6.86527   6.88284   6.95234
 Alpha virt. eigenvalues --    7.11500   7.19744   7.28042   7.31967   7.32719
 Alpha virt. eigenvalues --    7.61583   9.59059  11.23481  11.60964  12.04388
 Alpha virt. eigenvalues --   13.06144
  Beta  occ. eigenvalues --  -19.71743 -19.68752 -19.63344 -10.58892 -10.52334
  Beta  occ. eigenvalues --   -1.29796  -1.15406  -0.94265  -0.83541  -0.69493
  Beta  occ. eigenvalues --   -0.62589  -0.59782  -0.55667  -0.53976  -0.51028
  Beta  occ. eigenvalues --   -0.48215  -0.43645  -0.41654  -0.37813  -0.35558
  Beta  occ. eigenvalues --   -0.34524
  Beta virt. eigenvalues --   -0.06559   0.04785   0.08632   0.09980   0.11926
  Beta virt. eigenvalues --    0.13353   0.17196   0.20046   0.22083   0.22481
  Beta virt. eigenvalues --    0.24326   0.30257   0.31973   0.34876   0.38016
  Beta virt. eigenvalues --    0.40259   0.41343   0.42169   0.45352   0.48966
  Beta virt. eigenvalues --    0.49923   0.51668   0.52040   0.52818   0.54807
  Beta virt. eigenvalues --    0.55778   0.56576   0.61273   0.61902   0.63507
  Beta virt. eigenvalues --    0.66258   0.70162   0.71291   0.72634   0.74112
  Beta virt. eigenvalues --    0.75333   0.80054   0.83768   0.85077   0.89554
  Beta virt. eigenvalues --    0.92770   0.95928   0.99643   1.01017   1.03996
  Beta virt. eigenvalues --    1.05257   1.08173   1.08948   1.11677   1.12386
  Beta virt. eigenvalues --    1.13602   1.15230   1.18107   1.20606   1.23640
  Beta virt. eigenvalues --    1.26167   1.29154   1.31737   1.32970   1.34966
  Beta virt. eigenvalues --    1.37344   1.38087   1.41483   1.43866   1.48294
  Beta virt. eigenvalues --    1.51945   1.54444   1.56754   1.59782   1.66027
  Beta virt. eigenvalues --    1.72730   1.78399   1.87784   1.93675   1.95918
  Beta virt. eigenvalues --    1.97402   2.02871   2.03411   2.10016   2.15975
  Beta virt. eigenvalues --    2.18335   2.19592   2.24173   2.25593   2.32385
  Beta virt. eigenvalues --    2.32497   2.36373   2.44964   2.47687   2.49995
  Beta virt. eigenvalues --    2.53857   2.59043   2.61239   2.64689   2.70078
  Beta virt. eigenvalues --    2.78847   2.83543   2.86811   2.90670   2.92687
  Beta virt. eigenvalues --    2.93765   2.95957   2.98667   2.99273   3.02840
  Beta virt. eigenvalues --    3.04098   3.07647   3.09913   3.11607   3.16047
  Beta virt. eigenvalues --    3.18083   3.21433   3.24086   3.25616   3.29054
  Beta virt. eigenvalues --    3.33101   3.35304   3.37780   3.38639   3.39429
  Beta virt. eigenvalues --    3.40933   3.44821   3.48457   3.50227   3.53293
  Beta virt. eigenvalues --    3.56668   3.58469   3.59760   3.63487   3.65353
  Beta virt. eigenvalues --    3.67624   3.71089   3.72914   3.73345   3.76457
  Beta virt. eigenvalues --    3.78825   3.80333   3.81609   3.82844   3.85189
  Beta virt. eigenvalues --    3.87350   3.90193   3.92283   3.95828   3.97765
  Beta virt. eigenvalues --    3.99020   4.00434   4.02620   4.06595   4.07262
  Beta virt. eigenvalues --    4.09665   4.10960   4.13173   4.15318   4.18684
  Beta virt. eigenvalues --    4.21326   4.30528   4.31608   4.35015   4.37690
  Beta virt. eigenvalues --    4.42653   4.48879   4.55136   4.56628   4.61182
  Beta virt. eigenvalues --    4.63105   4.68350   4.71575   4.76420   4.79402
  Beta virt. eigenvalues --    4.84918   4.85674   4.89510   4.92450   4.94491
  Beta virt. eigenvalues --    4.96339   4.99735   5.05637   5.08846   5.11526
  Beta virt. eigenvalues --    5.14523   5.15437   5.20565   5.26184   5.27946
  Beta virt. eigenvalues --    5.37638   5.42150   5.54194   5.55401   5.60310
  Beta virt. eigenvalues --    5.70137   5.72360   5.80371   5.83289   5.89316
  Beta virt. eigenvalues --    5.96213   6.03158   6.10726   6.18370   6.28673
  Beta virt. eigenvalues --    6.32303   6.35078   6.37006   6.41742   6.42694
  Beta virt. eigenvalues --    6.51737   6.54982   6.56435   6.62078   6.64003
  Beta virt. eigenvalues --    6.67247   6.76902   6.82309   6.87276   6.91087
  Beta virt. eigenvalues --    6.95543   7.11550   7.19874   7.29050   7.32272
  Beta virt. eigenvalues --    7.36215   7.62942   9.60464  11.23574  11.61319
  Beta virt. eigenvalues --   12.04422  13.06398
          Condensed to atoms (all electrons):
               1          2          3          4          5          6
     1  O    7.929021  -0.005058   0.000874   0.313282  -0.043989  -0.053981
     2  O   -0.005058   7.807590   0.060056   0.004021  -0.000791   0.000026
     3  O    0.000874   0.060056   8.139097  -0.001052  -0.082829  -0.000317
     4  C    0.313282   0.004021  -0.001052   4.699706   0.285766   0.403911
     5  C   -0.043989  -0.000791  -0.082829   0.285766   5.163874  -0.039816
     6  H   -0.053981   0.000026  -0.000317   0.403911  -0.039816   0.728012
     7  H   -0.058104  -0.000129  -0.000017   0.411360  -0.053049  -0.087832
     8  H    0.003195   0.000103   0.002722  -0.033365   0.370824   0.001431
     9  H    0.002249   0.000642  -0.000728  -0.036005   0.397356  -0.016473
    10  H    0.318309   0.000323  -0.000050  -0.037167   0.011081  -0.009350
    11  H    0.015812   0.305471  -0.039513   0.000331  -0.004787   0.000130
    12  H    0.001643  -0.013008   0.055506  -0.022017   0.368275   0.006855
               7          8          9         10         11         12
     1  O   -0.058104   0.003195   0.002249   0.318309   0.015812   0.001643
     2  O   -0.000129   0.000103   0.000642   0.000323   0.305471  -0.013008
     3  O   -0.000017   0.002722  -0.000728  -0.000050  -0.039513   0.055506
     4  C    0.411360  -0.033365  -0.036005  -0.037167   0.000331  -0.022017
     5  C   -0.053049   0.370824   0.397356   0.011081  -0.004787   0.368275
     6  H   -0.087832   0.001431  -0.016473  -0.009350   0.000130   0.006855
     7  H    0.733271  -0.006660   0.009335  -0.007278   0.000370  -0.005222
     8  H   -0.006660   0.616795  -0.034893  -0.000768  -0.000002  -0.018553
     9  H    0.009335  -0.034893   0.587077  -0.000369  -0.000053  -0.024470
    10  H   -0.007278  -0.000768  -0.000369   0.455626  -0.001122   0.000039
    11  H    0.000370  -0.000002  -0.000053  -0.001122   0.434877   0.002019
    12  H   -0.005222  -0.018553  -0.024470   0.000039   0.002019   0.476063
          Atomic-Atomic Spin Densities.
               1          2          3          4          5          6
     1  O    0.006830  -0.000479   0.000671   0.000039  -0.002353  -0.002507
     2  O   -0.000479   0.297453  -0.116090  -0.000738   0.012313   0.000157
     3  O    0.000671  -0.116090   0.834113   0.002012  -0.055210  -0.000540
     4  C    0.000039  -0.000738   0.002012  -0.011728   0.001708   0.001709
     5  C   -0.002353   0.012313  -0.055210   0.001708   0.200422  -0.004397
     6  H   -0.002507   0.000157  -0.000540   0.001709  -0.004397   0.013577
     7  H    0.000270  -0.000003   0.000012   0.000607  -0.000781  -0.000428
     8  H    0.000202  -0.000411   0.002455   0.002570   0.000022  -0.001169
     9  H    0.000171  -0.000253   0.001054   0.000308  -0.000041  -0.000016
    10  H   -0.000699   0.000105  -0.000136   0.000309   0.000183   0.000598
    11  H   -0.000029   0.001838  -0.000391  -0.000022   0.000373   0.000010
    12  H   -0.001028   0.009792  -0.032537  -0.000069   0.034825   0.000771
               7          8          9         10         11         12
     1  O    0.000270   0.000202   0.000171  -0.000699  -0.000029  -0.001028
     2  O   -0.000003  -0.000411  -0.000253   0.000105   0.001838   0.009792
     3  O    0.000012   0.002455   0.001054  -0.000136  -0.000391  -0.032537
     4  C    0.000607   0.002570   0.000308   0.000309  -0.000022  -0.000069
     5  C   -0.000781   0.000022  -0.000041   0.000183   0.000373   0.034825
     6  H   -0.000428  -0.001169  -0.000016   0.000598   0.000010   0.000771
     7  H    0.001173   0.000317  -0.000077   0.000023  -0.000001  -0.000121
     8  H    0.000317  -0.007661   0.001138  -0.000022   0.000014  -0.001786
     9  H   -0.000077   0.001138  -0.011339  -0.000021   0.000028   0.000794
    10  H    0.000023  -0.000022  -0.000021  -0.000078   0.000040   0.000131
    11  H   -0.000001   0.000014   0.000028   0.000040  -0.010660  -0.000557
    12  H   -0.000121  -0.001786   0.000794   0.000131  -0.000557  -0.021412
 Mulliken charges and spin densities:
               1          2
     1  O   -0.423251   0.001086
     2  O   -0.159245   0.203683
     3  O   -0.133748   0.635414
     4  C    0.011230  -0.003294
     5  C   -0.371915   0.187063
     6  H    0.067404   0.007766
     7  H    0.063955   0.000993
     8  H    0.099170  -0.004332
     9  H    0.116332  -0.008256
    10  H    0.270727   0.000433
    11  H    0.286469  -0.009358
    12  H    0.172872  -0.011198
 Sum of Mulliken charges =  -0.00000   1.00000
 Mulliken charges and spin densities with hydrogens summed into heavy atoms:
               1          2
     1  O   -0.152524   0.001519
     2  O    0.127224   0.194325
     3  O   -0.133748   0.635414
     4  C    0.142590   0.005464
     5  C    0.016459   0.163278
 Electronic spatial extent (au):  <R**2>=            549.7337
 Charge=             -0.0000 electrons
 Dipole moment (field-independent basis, Debye):
    X=              2.4057    Y=             -1.6482    Z=             -0.2460  Tot=              2.9265
 Quadrupole moment (field-independent basis, Debye-Ang):
   XX=            -30.0954   YY=            -27.0537   ZZ=            -31.9330
   XY=             -0.1796   XZ=              1.4251   YZ=              0.9702
 Traceless Quadrupole moment (field-independent basis, Debye-Ang):
   XX=             -0.4013   YY=              2.6403   ZZ=             -2.2390
   XY=             -0.1796   XZ=              1.4251   YZ=              0.9702
 Octapole moment (field-independent basis, Debye-Ang**2):
  XXX=              3.7321  YYY=            -18.1243  ZZZ=             -0.6797  XYY=              1.0317
  XXY=            -12.1484  XXZ=             -2.8690  XZZ=             -2.5482  YZZ=             -1.2019
  YYZ=             -1.3841  XYZ=             -1.7603
 Hexadecapole moment (field-independent basis, Debye-Ang**3):
 XXXX=           -423.4783 YYYY=           -172.8244 ZZZZ=            -51.9292 XXXY=            -16.8543
 XXXZ=              1.6121 YYYX=            -14.4384 YYYZ=              2.9324 ZZZX=             -0.0764
 ZZZY=             -0.6297 XXYY=            -86.4207 XXZZ=            -78.9260 YYZZ=            -40.0006
 XXYZ=              3.6960 YYXZ=              1.4751 ZZXY=             -0.0399
 N-N= 1.902030456291D+02 E-N=-1.099743842824D+03  KE= 3.043252034624D+02
                          Isotropic Fermi Contact Couplings
        Atom                 a.u.       MegaHertz       Gauss      10(-4) cm-1
     1  O(17)              0.01006      -6.09667      -2.17544      -2.03363
     2  O(17)              0.03153     -19.11389      -6.82031      -6.37571
     3  O(17)              0.15928     -96.55776     -34.45421     -32.20820
     4  C(13)             -0.00477      -5.36659      -1.91493      -1.79010
     5  C(13)              0.09747     109.57157      39.09786      36.54914
     6  H(1)               0.00308      13.75534       4.90825       4.58829
     7  H(1)              -0.00007      -0.29489      -0.10522      -0.09837
     8  H(1)              -0.00017      -0.78120      -0.27875      -0.26058
     9  H(1)              -0.00263     -11.76437      -4.19782      -3.92417
    10  H(1)              -0.00008      -0.35545      -0.12683      -0.11857
    11  H(1)              -0.00454     -20.30919      -7.24682      -6.77442
    12  H(1)              -0.01562     -69.80525     -24.90825     -23.28453
 --------------------------------------------------------
       Center         ----  Spin Dipole Couplings  ----
                      3XX-RR        3YY-RR        3ZZ-RR
 --------------------------------------------------------
     1   Atom        0.000033      0.006401     -0.006433
     2   Atom        0.797597     -0.549824     -0.247773
     3   Atom        2.157272     -1.481682     -0.675590
     4   Atom        0.006076      0.002260     -0.008336
     5   Atom        0.204207     -0.092769     -0.111438
     6   Atom        0.004579     -0.001498     -0.003082
     7   Atom        0.003377     -0.001721     -0.001656
     8   Atom        0.000080      0.001602     -0.001682
     9   Atom        0.001428     -0.009360      0.007932
    10   Atom        0.001733      0.001142     -0.002875
    11   Atom       -0.012727      0.023638     -0.010910
    12   Atom        0.127677     -0.060999     -0.066678
 --------------------------------------------------------
                        XY            XZ            YZ
 --------------------------------------------------------
     1   Atom       -0.002058      0.002289      0.006723
     2   Atom        0.205058      0.677039      0.159127
     3   Atom        0.257333      1.700202      0.124857
     4   Atom       -0.009221     -0.001536      0.002554
     5   Atom        0.096847     -0.049030     -0.015123
     6   Atom       -0.001740     -0.002144     -0.000066
     7   Atom       -0.002716      0.003479     -0.002124
     8   Atom        0.009428      0.003368      0.014913
     9   Atom        0.008388     -0.005510     -0.012209
    10   Atom       -0.003118     -0.000286      0.000219
    11   Atom       -0.020469     -0.010154      0.031771
    12   Atom        0.071896      0.044897      0.015399
 --------------------------------------------------------


 ---------------------------------------------------------------------------------
              Anisotropic Spin Dipole Couplings in Principal Axis System
 ---------------------------------------------------------------------------------

       Atom             a.u.   MegaHertz   Gauss  10(-4) cm-1        Axes

              Baa    -0.0101     0.734     0.262     0.245 -0.2764 -0.3910  0.8779
     1 O(17)  Bbb     0.0008    -0.055    -0.020    -0.018  0.9546 -0.0064  0.2977
              Bcc     0.0094    -0.679    -0.242    -0.227 -0.1108  0.9204  0.3751
 
              Baa    -0.6359    46.013    16.419    15.348  0.2077  0.7231 -0.6588
     2 O(17)  Bbb    -0.5320    38.495    13.736    12.841 -0.4148  0.6750  0.6101
              Bcc     1.1679   -84.508   -30.155   -28.189  0.8859  0.1465  0.4401
 
              Baa    -1.5006   108.581    38.744    36.219 -0.0001  0.9888 -0.1494
     3 O(17)  Bbb    -1.4715   106.479    37.994    35.518 -0.4282  0.1350  0.8935
              Bcc     2.9721  -215.060   -76.739   -71.736  0.9037  0.0641  0.4234
 
              Baa    -0.0090    -1.202    -0.429    -0.401 -0.0723 -0.2775  0.9580
     4 C(13)  Bbb    -0.0050    -0.668    -0.238    -0.223  0.6398  0.7240  0.2580
              Bcc     0.0139     1.870     0.667     0.624  0.7652 -0.6315 -0.1252
 
              Baa    -0.1217   -16.325    -5.825    -5.446 -0.2545  0.9494  0.1840
     5 C(13)  Bbb    -0.1188   -15.945    -5.689    -5.319  0.1889 -0.1378  0.9723
              Bcc     0.2405    32.270    11.515    10.764  0.9485  0.2822 -0.1443
 
              Baa    -0.0038    -2.011    -0.718    -0.671  0.2892  0.2481  0.9246
     6 H(1)   Bbb    -0.0018    -0.942    -0.336    -0.314  0.1562  0.9406 -0.3013
              Bcc     0.0055     2.954     1.054     0.985  0.9445 -0.2315 -0.2333
 
              Baa    -0.0039    -2.082    -0.743    -0.695 -0.1723  0.5687  0.8043
     7 H(1)   Bbb    -0.0026    -1.411    -0.504    -0.471  0.5579  0.7293 -0.3961
              Bcc     0.0065     3.493     1.247     1.165  0.8118 -0.3805  0.4429
 
              Baa    -0.0161    -8.595    -3.067    -2.867 -0.2703  0.7003 -0.6607
     8 H(1)   Bbb    -0.0034    -1.802    -0.643    -0.601  0.8573 -0.1372 -0.4962
              Bcc     0.0195    10.397     3.710     3.468  0.4381  0.7006  0.5632
 
              Baa    -0.0172    -9.162    -3.269    -3.056 -0.2902  0.8841  0.3663
     9 H(1)   Bbb    -0.0017    -0.884    -0.316    -0.295  0.8375  0.0495  0.5442
              Bcc     0.0188    10.046     3.585     3.351 -0.4630 -0.4647  0.7548
 
              Baa    -0.0029    -1.543    -0.551    -0.515  0.0527 -0.0133  0.9985
    10 H(1)   Bbb    -0.0017    -0.904    -0.322    -0.301  0.6716  0.7405 -0.0256
              Bcc     0.0046     2.447     0.873     0.816  0.7390 -0.6720 -0.0480
 
              Baa    -0.0301   -16.056    -5.729    -5.356 -0.1670 -0.5482  0.8195
    11 H(1)   Bbb    -0.0206   -11.002    -3.926    -3.670  0.9262  0.1979  0.3210
              Bcc     0.0507    27.058     9.655     9.026 -0.3382  0.8126  0.4747
 
              Baa    -0.0853   -45.501   -16.236   -15.177 -0.3150  0.9488 -0.0250
    12 H(1)   Bbb    -0.0765   -40.834   -14.571   -13.621 -0.2008 -0.0408  0.9788
              Bcc     0.1618    86.335    30.806    28.798  0.9276  0.3134  0.2034
 

 ---------------------------------------------------------------------------------

 No NMR shielding tensors so no spin-rotation constants.
 Leave Link  601 at Sat Jun 22 12:35:22 2019, MaxMem=   671088640 cpu:               8.8 elap:               0.5
 (Enter /shared/centos7/gaussian/g16/l701.exe)
 ... and contract with generalized density number  0.
 Compute integral first derivatives.
 Leave Link  701 at Sat Jun 22 12:35:22 2019, MaxMem=   671088640 cpu:               5.7 elap:               0.3
 (Enter /shared/centos7/gaussian/g16/l702.exe)
 L702 exits ... SP integral derivatives will be done elsewhere.
 Leave Link  702 at Sat Jun 22 12:35:23 2019, MaxMem=   671088640 cpu:               0.6 elap:               0.1
 (Enter /shared/centos7/gaussian/g16/l703.exe)
 Integral derivatives from FoFJK, PRISM(SPDF).
 Compute integral first derivatives, UseDBF=F ICtDFT=           0.
 Calling FoFJK, ICntrl=      2127 FMM=F ISym2X=0 I1Cent= 0 IOpClX= 1 NMat=1 NMatS=1 NMatT=0.
 FoFJK:  IHMeth= 1 ICntrl=    2127 DoSepK=F KAlg= 0 I1Cent=           0 FoldK=F
 IRaf=         0 NMat=       1 IRICut=       1 DoRegI=T DoRafI=F ISym2E= 0 IDoP0=0 IntGTp=1.
 FoFCou: FMM=F IPFlag=           0 FMFlag=      100000 FMFlg1=         800
         NFxFlg=           0 DoJE=F BraDBF=F KetDBF=F FulRan=T
         wScrn=  0.000000 ICntrl=      2127 IOpCl=  1 I1Cent=           0 NGrid=           0
         NMat0=    1 NMatS0=      1 NMatT0=    0 NMatD0=    1 NMtDS0=    0 NMtDT0=    0
 Symmetry not used in FoFCou.
 Leave Link  703 at Sat Jun 22 12:35:32 2019, MaxMem=   671088640 cpu:             188.1 elap:               9.4
 (Enter /shared/centos7/gaussian/g16/l716.exe)
 Dipole        = 9.46474173D-01-6.48463885D-01-9.67936597D-02
 ***** Axes restored to original set *****
 -------------------------------------------------------------------
 Center     Atomic                   Forces (Hartrees/Bohr)
 Number     Number              X              Y              Z
 -------------------------------------------------------------------
      1        8          -0.023035582    0.021418050    0.011423425
      2        8          -0.019609364    0.011072035    0.013130718
      3        8          -0.016962823   -0.037376841    0.005306762
      4        6           0.022592214    0.015716154   -0.009992086
      5        6           0.013487759    0.002472962   -0.000567279
      6        1          -0.002517297   -0.004284938   -0.006285471
      7        1          -0.001328342   -0.007322503    0.007073918
      8        1          -0.009153865   -0.001462937    0.008962408
      9        1          -0.007607142    0.002078027   -0.011592393
     10        1           0.007162564   -0.029775118   -0.005844674
     11        1           0.004639072   -0.004703144   -0.015880246
     12        1           0.032332804    0.032168254    0.004264918
 -------------------------------------------------------------------
 Cartesian Forces:  Max     0.037376841 RMS     0.015326653
 Leave Link  716 at Sat Jun 22 12:35:32 2019, MaxMem=   671088640 cpu:               0.8 elap:               0.1
 (Enter /shared/centos7/gaussian/g16/l103.exe)

 GradGradGradGradGradGradGradGradGradGradGradGradGradGradGradGradGradGrad
 Berny optimization.
 FormGI is forming the generalized inverse of G from B-inverse, IUseBI=4.
 Internal  Forces:  Max     0.043970187 RMS     0.010814705
 Search for a local minimum.
 Step number   1 out of a maximum of  100
 All quantities printed in internal units (Hartrees-Bohrs-Radians)
 RMS Force = .86240D-02 SwitMx=.10000D-02 MixMth= 1
 Mixed Optimization -- RFO/linear search
 Second derivative matrix not updated -- first step.
 ITU=  0
     Eigenvalues ---    0.00230   0.00230   0.00476   0.01673   0.02403
     Eigenvalues ---    0.04766   0.04888   0.05380   0.05951   0.11358
     Eigenvalues ---    0.11694   0.13809   0.14012   0.16000   0.16000
     Eigenvalues ---    0.16000   0.16000   0.21990   0.30185   0.32264
     Eigenvalues ---    0.32530   0.32543   0.32614   0.45381   0.48977
     Eigenvalues ---    0.49394   0.628761000.000001000.000001000.00000
     Eigenvalues --- 1000.000001000.000001000.000001000.000001000.00000
     Eigenvalues --- 1000.000001000.000001000.000001000.000001000.00000
     Eigenvalues --- 1000.000001000.000001000.000001000.00000
 RFO step:  Lambda=-1.14597126D-02 EMin= 2.30000000D-03
 Linear search not attempted -- first point.
 Iteration  1 RMS(Cart)=  0.18832855 RMS(Int)=  0.01884677
 Iteration  2 RMS(Cart)=  0.02349077 RMS(Int)=  0.00042117
 Iteration  3 RMS(Cart)=  0.00042636 RMS(Int)=  0.00034380
 Iteration  4 RMS(Cart)=  0.00000028 RMS(Int)=  0.00034380
 Iteration  1 RMS(Cart)=  0.00000000 RMS(Int)=  0.00000000
 ITry= 1 IFail=0 DXMaxC= 6.50D-01 DCOld= 1.00D+10 DXMaxT= 3.00D-01 DXLimC= 3.00D+00 Rises=F
 Variable       Old X    -DE/DX   Delta X   Delta X   Delta X     New X
                                 (Linear)    (Quad)   (Total)
    R1        2.64835   0.01761   0.00000   0.03785   0.03785   2.68620
    R2        1.87612  -0.03093   0.00000  -0.06171  -0.06171   1.81441
    R3        2.48734   0.01620   0.00000   0.02530   0.02530   2.51264
    R4        1.87182  -0.01652   0.00000  -0.03268  -0.03268   1.83914
    R5        2.58171   0.04397   0.00000   0.00000   0.00000   2.58171
    R6        2.87596  -0.00574   0.00000  -0.01832  -0.01832   2.85764
    R7        2.09734  -0.00786   0.00000  -0.02328  -0.02328   2.07407
    R8        2.10363  -0.01010   0.00000  -0.03023  -0.03023   2.07339
    R9        2.09885  -0.01288   0.00000  -0.03826  -0.03826   2.06060
   R10        2.09862  -0.01348   0.00000  -0.04002  -0.04002   2.05860
   R11        2.18751  -0.00347   0.00000   0.00000   0.00000   2.18751
    A1        1.85660   0.00721   0.00000   0.04202   0.04202   1.89862
    A2        1.80405   0.00692   0.00000   0.04035   0.04035   1.84440
    A3        1.81399  -0.00058   0.00000  -0.00337  -0.00337   1.81063
    A4        1.96072  -0.01591   0.00000  -0.07398  -0.07422   1.88650
    A5        1.90973   0.00567   0.00000   0.01923   0.01848   1.92822
    A6        1.91587   0.00585   0.00000   0.02525   0.02500   1.94088
    A7        1.91246   0.00256   0.00000   0.00467   0.00442   1.91687
    A8        1.91075   0.00336   0.00000   0.01319   0.01326   1.92400
    A9        1.85109  -0.00060   0.00000   0.01702   0.01658   1.86767
   A10        1.92673   0.00371   0.00000   0.02995   0.02963   1.95636
   A11        1.93569   0.00347   0.00000   0.01956   0.01837   1.95406
   A12        1.95523  -0.01101   0.00000  -0.07535  -0.07542   1.87981
   A13        1.88895  -0.00095   0.00000   0.01640   0.01557   1.90453
   A14        1.89057   0.00337   0.00000   0.01765   0.01818   1.90874
   A15        1.86415   0.00161   0.00000  -0.00667  -0.00698   1.85717
   A16        2.58388   0.01231   0.00000   0.00000  -0.00000   2.58388
    D1        3.09588  -0.00054   0.00000  -0.01148  -0.01139   3.08449
    D2        0.96769   0.00291   0.00000   0.01871   0.01905   0.98674
    D3       -1.05695  -0.00293   0.00000  -0.02712  -0.02756  -1.08451
    D4       -1.54599   0.00514   0.00000   0.14483   0.14483  -1.40116
    D5        2.11355   0.00042   0.00000   0.03047   0.03047   2.14402
    D6        2.62912  -0.00017   0.00000   0.04132   0.04083   2.66994
    D7       -1.56052   0.00332   0.00000   0.09417   0.09426  -1.46626
    D8        0.52060   0.00039   0.00000   0.04892   0.04895   0.56955
    D9       -1.52743  -0.00187   0.00000   0.01926   0.01903  -1.50840
   D10        0.56612   0.00162   0.00000   0.07211   0.07247   0.63859
   D11        2.64724  -0.00131   0.00000   0.02686   0.02716   2.67439
   D12        0.49586   0.00076   0.00000   0.04986   0.04946   0.54532
   D13        2.58941   0.00425   0.00000   0.10270   0.10290   2.69231
   D14       -1.61266   0.00132   0.00000   0.05745   0.05759  -1.55507
   D15       -1.61712   0.00290   0.00000   0.19074   0.19024  -1.42689
   D16        2.53674   0.00301   0.00000   0.18953   0.18941   2.72615
   D17        0.50560   0.00160   0.00000   0.16500   0.16562   0.67122
         Item               Value     Threshold  Converged?
 Maximum Force            0.030932     0.002500     NO 
 RMS     Force            0.008624     0.001667     NO 
 Maximum Displacement     0.649809     0.010000     NO 
 RMS     Displacement     0.192441     0.006667     NO 
 Predicted change in Energy=-6.809881D-03
 Lowest energy point so far.  Saving SCF results.
 GradGradGradGradGradGradGradGradGradGradGradGradGradGradGradGradGradGrad

 Leave Link  103 at Sat Jun 22 12:35:32 2019, MaxMem=   671088640 cpu:               1.0 elap:               0.1
 (Enter /shared/centos7/gaussian/g16/l202.exe)
                          Input orientation:                          
 ---------------------------------------------------------------------
 Center     Atomic      Atomic             Coordinates (Angstroms)
 Number     Number       Type             X           Y           Z
 ---------------------------------------------------------------------
      1          8           0       -1.575419   -0.100425    7.952130
      2          8           0       -2.364102   -2.355999    6.570554
      3          8           0       -1.272573   -2.768119    7.208240
      4          6           0       -0.282999    0.226370    7.458721
      5          6           0        0.455929   -1.064620    7.186563
      6          1           0        0.269607    0.823451    8.195424
      7          1           0       -0.348059    0.826800    6.542708
      8          1           0        1.210459   -0.948950    6.407895
      9          1           0        0.927954   -1.460974    8.084791
     10          1           0       -2.035078    0.712031    8.176865
     11          1           0       -2.727337   -1.632924    7.111296
     12          1           0       -0.323350   -1.852464    6.851867
 ---------------------------------------------------------------------
                    Distance matrix (angstroms):
                    1          2          3          4          5
     1  O    0.000000
     2  O    2.760142   0.000000
     3  O    2.785979   1.329633   0.000000
     4  C    1.421477   3.433432   3.163694   0.000000
     5  C    2.375319   3.162231   2.426952   1.512197   0.000000
     6  H    2.077706   4.436838   4.031406   1.097548   2.148797
     7  H    2.086296   3.767680   3.771088   1.097192   2.153698
     8  H    3.296327   3.844962   3.180468   2.171642   1.090421
     9  H    2.852292   3.732508   2.705418   2.169217   1.089366
    10  H    0.960144   3.478692   3.692031   1.954834   3.215945
    11  H    2.093435   0.973230   1.847811   3.090706   3.234473
    12  H    2.418242   2.120697   1.366181   2.165975   1.157581
                    6          7          8          9         10
     6  H    0.000000
     7  H    1.764368   0.000000
     8  H    2.687353   2.366524   0.000000
     9  H    2.379971   3.039760   1.775939   0.000000
    10  H    2.307451   2.351526   4.052360   3.675593   0.000000
    11  H    4.023778   3.469077   4.058181   3.786610   2.667110
    12  H    3.052420   2.697154   1.834671   1.799757   3.355930
                   11         12
    11  H    0.000000
    12  H    2.427891   0.000000
 Stoichiometry    C2H7O3(2)
 Framework group  C1[X(C2H7O3)]
 Deg. of freedom    30
 Full point group                 C1      NOp   1
 RotChk:  IX=0 Diff= 1.55D-01
 Largest Abelian subgroup         C1      NOp   1
 Largest concise Abelian subgroup C1      NOp   1
                         Standard orientation:                         
 ---------------------------------------------------------------------
 Center     Atomic      Atomic             Coordinates (Angstroms)
 Number     Number       Type             X           Y           Z
 ---------------------------------------------------------------------
      1          8           0        0.732659   -1.133075   -0.298331
      2          8           0       -1.841669   -0.420664    0.397147
      3          8           0       -1.460067    0.583265   -0.386708
      4          6           0        1.571479   -0.101572    0.204639
      5          6           0        0.842644    1.214185    0.048675
      6          1           0        2.517708   -0.071132   -0.350640
      7          1           0        1.823237   -0.273372    1.258646
      8          1           0        1.160601    1.949331    0.788596
      9          1           0        0.968810    1.634050   -0.948577
     10          1           0        1.206178   -1.967018   -0.251477
     11          1           0       -1.319500   -1.190608    0.111310
     12          1           0       -0.289150    1.006874    0.175395
 ---------------------------------------------------------------------
 Rotational constants (GHZ):           7.2482652           3.1536399           2.4117801
 Leave Link  202 at Sat Jun 22 12:35:32 2019, MaxMem=   671088640 cpu:               0.7 elap:               0.1
 (Enter /shared/centos7/gaussian/g16/l301.exe)
 Standard basis: CC-pVTZ (5D, 7F)
 Ernie: Thresh=  0.10000D-02 Tol=  0.10000D-05 Strict=F.
 Ernie:  15 primitive shells out of 186 were deleted.
 There are   280 symmetry adapted cartesian basis functions of A   symmetry.
 There are   248 symmetry adapted basis functions of A   symmetry.
   248 basis functions,   379 primitive gaussians,   280 cartesian basis functions
    22 alpha electrons       21 beta electrons
       nuclear repulsion energy       194.0254019605 Hartrees.
 IExCor= 4336 DFT=T Ex+Corr=M062X ExCW=0 ScaHFX=  0.540000
 ScaDFX=  1.000000  1.000000  1.000000  1.000000 ScalE2=  1.000000  1.000000
 IRadAn=      1 IRanWt=     -1 IRanGd=            0 ICorTp=0 IEmpDi=  4
 NAtoms=   12 NActive=   12 NUniq=   12 SFac= 1.00D+00 NAtFMM=   60 NAOKFM=F Big=F
 Integral buffers will be    131072 words long.
 Raffenetti 2 integral format.
 Two-electron integral symmetry is turned on.
 Leave Link  301 at Sat Jun 22 12:35:32 2019, MaxMem=   671088640 cpu:               1.8 elap:               0.1
 (Enter /shared/centos7/gaussian/g16/l302.exe)
 NPDir=0 NMtPBC=     1 NCelOv=     1 NCel=       1 NClECP=     1 NCelD=      1
         NCelK=      1 NCelE2=     1 NClLst=     1 CellRange=     0.0.
 One-electron integrals computed using PRISM.
 One-electron integral symmetry used in STVInt
 NBasis=   248 RedAO= T EigKep=  8.56D-04  NBF=   248
 NBsUse=   248 1.00D-06 EigRej= -1.00D+00 NBFU=   248
 Precomputing XC quadrature grid using
 IXCGrd= 4 IRadAn=           1 IRanWt=          -1 IRanGd=           0 AccXCQ= 0.00D+00.
 Generated NRdTot=       0 NPtTot=           0 NUsed=           0 NTot=          32
 NSgBfM=   280   280   280   280   280 MxSgAt=    12 MxSgA2=    12.
 Leave Link  302 at Sat Jun 22 12:35:33 2019, MaxMem=   671088640 cpu:               6.4 elap:               0.4
 (Enter /shared/centos7/gaussian/g16/l303.exe)
 DipDrv:  MaxL=1.
 Leave Link  303 at Sat Jun 22 12:35:33 2019, MaxMem=   671088640 cpu:               0.9 elap:               0.1
 (Enter /shared/centos7/gaussian/g16/l401.exe)
 Initial guess from the checkpoint file:  "/scratch/harms.n/gauss_scrdir/Gau-18544.chk"
 B after Tr=    -0.000000    0.000000    0.000000
         Rot=    0.998838    0.000541    0.000958    0.048180 Ang=   5.52 deg.
 Guess basis will be translated and rotated to current coordinates.
 JPrj=2 DoOrth=T DoCkMO=T.
 Initial guess <Sx>= 0.0000 <Sy>= 0.0000 <Sz>= 0.5000 <S**2>= 0.7556 S= 0.5028
 Generating alternative initial guess.
 ExpMin= 1.03D-01 ExpMax= 1.53D+04 ExpMxC= 5.22D+02 IAcc=1 IRadAn=         1 AccDes= 0.00D+00
 Harris functional with IExCor= 1009 and IRadAn=       1 diagonalized for initial guess.
 HarFok:  IExCor= 1009 AccDes= 0.00D+00 IRadAn=         1 IDoV= 1 UseB2=F ITyADJ=14
 ICtDFT=  3500011 ScaDFX=  1.000000  1.000000  1.000000  1.000000
 FoFCou: FMM=F IPFlag=           0 FMFlag=      100000 FMFlg1=           0
         NFxFlg=           0 DoJE=T BraDBF=F KetDBF=T FulRan=T
         wScrn=  0.000000 ICntrl=       500 IOpCl=  0 I1Cent=   200000004 NGrid=           0
         NMat0=    1 NMatS0=      1 NMatT0=    0 NMatD0=    1 NMtDS0=    0 NMtDT0=    0
 Petite list used in FoFCou.
 Harris En= -305.791150159878    
 Leave Link  401 at Sat Jun 22 12:35:34 2019, MaxMem=   671088640 cpu:              15.6 elap:               0.8
 (Enter /shared/centos7/gaussian/g16/l502.exe)
 Integral symmetry usage will be decided dynamically.
 UHF open shell SCF:
 Using DIIS extrapolation, IDIIS=  1040.
 NGot=   671088640 LenX=   670923676 LenY=   670844835
 Requested convergence on RMS density matrix=1.00D-08 within 900 cycles.
 Requested convergence on MAX density matrix=1.00D-06.
 Requested convergence on             energy=1.00D-06.
 No special actions if energy rises.
 Fock matrices will be formed incrementally for  20 cycles.

 Cycle   1  Pass 1  IDiag  1:
 FoFJK:  IHMeth= 1 ICntrl=       0 DoSepK=F KAlg= 0 I1Cent=           0 FoldK=F
 IRaf= 980000000 NMat=       1 IRICut=       1 DoRegI=T DoRafI=F ISym2E= 0 IDoP0=0 IntGTp=1.
 FoFCou: FMM=F IPFlag=           0 FMFlag=      100000 FMFlg1=           0
         NFxFlg=           0 DoJE=F BraDBF=F KetDBF=F FulRan=T
         wScrn=  0.000000 ICntrl=         0 IOpCl=  1 I1Cent=           0 NGrid=           0
         NMat0=    1 NMatS0=      1 NMatT0=    0 NMatD0=    1 NMtDS0=    0 NMtDT0=    0
 Symmetry not used in FoFCou.
 E= -305.859474188018    
 DIIS: error= 6.52D-03 at cycle   1 NSaved=   1.
 NSaved= 1 IEnMin= 1 EnMin= -305.859474188018     IErMin= 1 ErrMin= 6.52D-03
 ErrMax= 6.52D-03  0.00D+00 EMaxC= 1.00D-01 BMatC= 1.33D-01 BMatP= 1.33D-01
 IDIUse=3 WtCom= 9.35D-01 WtEn= 6.52D-02
 Coeff-Com:  0.100D+01
 Coeff-En:   0.100D+01
 Coeff:      0.100D+01
 Gap=     0.888 Goal=   None    Shift=    0.000
 Gap=     0.907 Goal=   None    Shift=    0.000
 GapD=    0.888 DampG=2.000 DampE=1.000 DampFc=2.0000 IDamp=-1.
 RMSDP=6.96D-04 MaxDP=2.36D-02              OVMax= 5.12D-02

 Cycle   2  Pass 1  IDiag  1:
 RMSU=  6.95D-04    CP:  9.96D-01
 E= -305.902096611295     Delta-E=       -0.042622423277 Rises=F Damp=F
 DIIS: error= 1.84D-03 at cycle   2 NSaved=   2.
 NSaved= 2 IEnMin= 2 EnMin= -305.902096611295     IErMin= 2 ErrMin= 1.84D-03
 ErrMax= 1.84D-03  0.00D+00 EMaxC= 1.00D-01 BMatC= 5.88D-03 BMatP= 1.33D-01
 IDIUse=3 WtCom= 9.82D-01 WtEn= 1.84D-02
 Coeff-Com: -0.969D-01 0.110D+01
 Coeff-En:   0.000D+00 0.100D+01
 Coeff:     -0.951D-01 0.110D+01
 Gap=     0.375 Goal=   None    Shift=    0.000
 Gap=     0.280 Goal=   None    Shift=    0.000
 RMSDP=2.17D-04 MaxDP=8.88D-03 DE=-4.26D-02 OVMax= 2.91D-02

 Cycle   3  Pass 1  IDiag  1:
 RMSU=  1.57D-04    CP:  9.94D-01  1.21D+00
 E= -305.904593358379     Delta-E=       -0.002496747084 Rises=F Damp=F
 DIIS: error= 1.35D-03 at cycle   3 NSaved=   3.
 NSaved= 3 IEnMin= 3 EnMin= -305.904593358379     IErMin= 3 ErrMin= 1.35D-03
 ErrMax= 1.35D-03  0.00D+00 EMaxC= 1.00D-01 BMatC= 3.59D-03 BMatP= 5.88D-03
 IDIUse=3 WtCom= 9.86D-01 WtEn= 1.35D-02
 Coeff-Com: -0.791D-01 0.508D+00 0.571D+00
 Coeff-En:   0.000D+00 0.000D+00 0.100D+01
 Coeff:     -0.780D-01 0.501D+00 0.577D+00
 Gap=     0.374 Goal=   None    Shift=    0.000
 Gap=     0.280 Goal=   None    Shift=    0.000
 RMSDP=8.28D-05 MaxDP=2.70D-03 DE=-2.50D-03 OVMax= 1.31D-02

 Cycle   4  Pass 1  IDiag  1:
 RMSU=  7.58D-05    CP:  9.94D-01  1.26D+00  9.12D-01
 E= -305.905343464579     Delta-E=       -0.000750106200 Rises=F Damp=F
 DIIS: error= 4.84D-04 at cycle   4 NSaved=   4.
 NSaved= 4 IEnMin= 4 EnMin= -305.905343464579     IErMin= 4 ErrMin= 4.84D-04
 ErrMax= 4.84D-04  0.00D+00 EMaxC= 1.00D-01 BMatC= 4.10D-04 BMatP= 3.59D-03
 IDIUse=3 WtCom= 9.95D-01 WtEn= 4.84D-03
 Coeff-Com: -0.107D-01-0.157D-01 0.201D+00 0.825D+00
 Coeff-En:   0.000D+00 0.000D+00 0.000D+00 0.100D+01
 Coeff:     -0.106D-01-0.156D-01 0.200D+00 0.826D+00
 Gap=     0.372 Goal=   None    Shift=    0.000
 Gap=     0.280 Goal=   None    Shift=    0.000
[...]
 Alpha virt. eigenvalues --    3.36471   3.37736   3.40065   3.41714   3.43160
 Alpha virt. eigenvalues --    3.45799   3.47805   3.49614   3.52380   3.57998
 Alpha virt. eigenvalues --    3.60106   3.63979   3.66848   3.68828   3.72407
 Alpha virt. eigenvalues --    3.74008   3.76954   3.77390   3.78713   3.81909
 Alpha virt. eigenvalues --    3.83169   3.83865   3.86177   3.90035   3.91667
 Alpha virt. eigenvalues --    3.93314   3.95461   3.97069   3.99200   4.01482
 Alpha virt. eigenvalues --    4.05371   4.06311   4.08583   4.10760   4.11881
 Alpha virt. eigenvalues --    4.16656   4.20167   4.22248   4.25061   4.27961
 Alpha virt. eigenvalues --    4.29938   4.31393   4.37788   4.39424   4.43013
 Alpha virt. eigenvalues --    4.54206   4.58707   4.60520   4.62851   4.67344
 Alpha virt. eigenvalues --    4.72043   4.75152   4.78062   4.81751   4.85352
 Alpha virt. eigenvalues --    4.87504   4.90629   4.94451   4.95782   4.98999
 Alpha virt. eigenvalues --    5.02439   5.08634   5.12607   5.12884   5.15474
 Alpha virt. eigenvalues --    5.18394   5.25545   5.30778   5.32619   5.39973
 Alpha virt. eigenvalues --    5.44102   5.51168   5.54293   5.56896   5.67483
 Alpha virt. eigenvalues --    5.70470   5.79889   5.84191   5.87994   5.93538
 Alpha virt. eigenvalues --    6.03781   6.15010   6.20068   6.28897   6.32761
 Alpha virt. eigenvalues --    6.34643   6.41957   6.44086   6.47673   6.50170
 Alpha virt. eigenvalues --    6.58178   6.61526   6.64287   6.66870   6.70932
 Alpha virt. eigenvalues --    6.74455   6.83394   6.87097   6.89687   7.07704
 Alpha virt. eigenvalues --    7.16395   7.19985   7.30383   7.32574   7.38934
 Alpha virt. eigenvalues --    7.60354   9.66524  11.71992  11.99067  12.48920
 Alpha virt. eigenvalues --   13.32258
  Beta  occ. eigenvalues --  -19.70486 -19.68340 -19.64577 -10.59687 -10.52337
  Beta  occ. eigenvalues --   -1.28217  -1.16593  -0.94125  -0.85199  -0.70530
  Beta  occ. eigenvalues --   -0.63563  -0.60275  -0.55919  -0.54100  -0.49665
  Beta  occ. eigenvalues --   -0.48523  -0.44587  -0.43191  -0.39435  -0.36391
  Beta  occ. eigenvalues --   -0.34590
  Beta virt. eigenvalues --   -0.06345   0.04686   0.09126   0.11078   0.12285
  Beta virt. eigenvalues --    0.14052   0.15727   0.19351   0.20181   0.22319
  Beta virt. eigenvalues --    0.26588   0.28814   0.30353   0.36622   0.37564
  Beta virt. eigenvalues --    0.37887   0.42410   0.43253   0.45791   0.48091
  Beta virt. eigenvalues --    0.49505   0.50855   0.51858   0.53439   0.54188
  Beta virt. eigenvalues --    0.57325   0.59088   0.60386   0.61952   0.64161
  Beta virt. eigenvalues --    0.65625   0.68979   0.73652   0.74102   0.76269
  Beta virt. eigenvalues --    0.77946   0.81479   0.84786   0.86170   0.89939
  Beta virt. eigenvalues --    0.90785   0.96232   0.98173   1.01615   1.02794
  Beta virt. eigenvalues --    1.06660   1.07078   1.09769   1.12734   1.14564
  Beta virt. eigenvalues --    1.16089   1.16845   1.18532   1.20782   1.25819
  Beta virt. eigenvalues --    1.28044   1.30558   1.33482   1.35877   1.37167
  Beta virt. eigenvalues --    1.40043   1.40403   1.42456   1.47274   1.50880
  Beta virt. eigenvalues --    1.52985   1.57107   1.59842   1.64225   1.68943
  Beta virt. eigenvalues --    1.73094   1.81856   1.85982   1.95763   1.97562
  Beta virt. eigenvalues --    1.98953   2.04432   2.08664   2.09293   2.14300
  Beta virt. eigenvalues --    2.16938   2.24080   2.26353   2.29869   2.32763
  Beta virt. eigenvalues --    2.36252   2.41579   2.43580   2.47399   2.51389
  Beta virt. eigenvalues --    2.51798   2.60535   2.63895   2.66609   2.71869
  Beta virt. eigenvalues --    2.77782   2.85977   2.86487   2.88151   2.93001
  Beta virt. eigenvalues --    2.95755   2.97117   2.99239   3.01743   3.03612
  Beta virt. eigenvalues --    3.05628   3.08663   3.11720   3.12416   3.14306
  Beta virt. eigenvalues --    3.14454   3.22092   3.23980   3.26734   3.29405
  Beta virt. eigenvalues --    3.32789   3.36620   3.37986   3.39757   3.41947
  Beta virt. eigenvalues --    3.43153   3.46083   3.48098   3.49618   3.52356
  Beta virt. eigenvalues --    3.58345   3.60263   3.64629   3.66858   3.69415
  Beta virt. eigenvalues --    3.72723   3.74059   3.77381   3.77527   3.78930
  Beta virt. eigenvalues --    3.82572   3.83327   3.83965   3.86451   3.90134
  Beta virt. eigenvalues --    3.91676   3.93237   3.95765   3.97419   3.99309
  Beta virt. eigenvalues --    4.01763   4.05247   4.06627   4.08744   4.10849
  Beta virt. eigenvalues --    4.12098   4.17253   4.20198   4.22466   4.24664
  Beta virt. eigenvalues --    4.27969   4.30306   4.31536   4.38040   4.40101
  Beta virt. eigenvalues --    4.43118   4.55020   4.59179   4.60517   4.63232
  Beta virt. eigenvalues --    4.67515   4.72327   4.75372   4.78511   4.81930
  Beta virt. eigenvalues --    4.85922   4.87729   4.91156   4.94926   4.96648
  Beta virt. eigenvalues --    4.99742   5.02596   5.09457   5.13273   5.13643
  Beta virt. eigenvalues --    5.15723   5.19022   5.25690   5.31065   5.32799
  Beta virt. eigenvalues --    5.40321   5.44634   5.52067   5.54957   5.57676
  Beta virt. eigenvalues --    5.68312   5.71254   5.80529   5.84358   5.88659
  Beta virt. eigenvalues --    5.93779   6.04824   6.15097   6.21620   6.32056
  Beta virt. eigenvalues --    6.33335   6.38382   6.43692   6.47171   6.50238
  Beta virt. eigenvalues --    6.53982   6.61030   6.62945   6.65983   6.67488
  Beta virt. eigenvalues --    6.70980   6.75056   6.84143   6.87278   6.92338
  Beta virt. eigenvalues --    7.07898   7.16510   7.20458   7.32073   7.35345
  Beta virt. eigenvalues --    7.38997   7.61683   9.68068  11.72384  11.99114
  Beta virt. eigenvalues --   12.48943  13.32424
          Condensed to atoms (all electrons):
               1          2          3          4          5          6
     1  O    7.965432  -0.027552   0.002430   0.253971  -0.039128  -0.033942
     2  O   -0.027552   7.832874   0.065177   0.016047  -0.003103   0.000419
     3  O    0.002430   0.065177   8.122743  -0.003317  -0.085056  -0.000253
     4  C    0.253971   0.016047  -0.003317   4.831142   0.288881   0.413859
     5  C   -0.039128  -0.003103  -0.085056   0.288881   5.168992  -0.028253
     6  H   -0.033942   0.000419  -0.000253   0.413859  -0.028253   0.608441
     7  H   -0.056861   0.004100   0.000025   0.418149  -0.066978  -0.055300
     8  H    0.003932   0.000062   0.002525  -0.037931   0.373311  -0.004151
     9  H    0.003561   0.000536   0.000951  -0.033802   0.377432  -0.008639
    10  H    0.305177   0.001105   0.000110  -0.027161   0.007628  -0.008770
    11  H    0.048437   0.303837  -0.036549  -0.004411  -0.005193   0.001195
    12  H   -0.002013  -0.017557   0.064763  -0.019133   0.374244   0.003606
               7          8          9         10         11         12
     1  O   -0.056861   0.003932   0.003561   0.305177   0.048437  -0.002013
     2  O    0.004100   0.000062   0.000536   0.001105   0.303837  -0.017557
     3  O    0.000025   0.002525   0.000951   0.000110  -0.036549   0.064763
     4  C    0.418149  -0.037931  -0.033802  -0.027161  -0.004411  -0.019133
     5  C   -0.066978   0.373311   0.377432   0.007628  -0.005193   0.374244
     6  H   -0.055300  -0.004151  -0.008639  -0.008770   0.001195   0.003606
     7  H    0.632721   0.001973   0.009829  -0.001702  -0.005306  -0.005980
     8  H    0.001973   0.610550  -0.029373  -0.000728  -0.000017  -0.022085
     9  H    0.009829  -0.029373   0.573674   0.000071  -0.000456  -0.018985
    10  H   -0.001702  -0.000728   0.000071   0.460157  -0.003461  -0.000062
    11  H   -0.005306  -0.000017  -0.000456  -0.003461   0.418161   0.004377
    12  H   -0.005980  -0.022085  -0.018985  -0.000062   0.004377   0.458090
          Atomic-Atomic Spin Densities.
               1          2          3          4          5          6
     1  O    0.003211  -0.001071   0.001227   0.000121  -0.001674  -0.002387
     2  O   -0.001071   0.279005  -0.107576  -0.000583   0.013277   0.000518
     3  O    0.001227  -0.107576   0.827993  -0.002005  -0.057220  -0.000946
     4  C    0.000121  -0.000583  -0.002005  -0.015861   0.002664   0.001978
     5  C   -0.001674   0.013277  -0.057220   0.002664   0.213155  -0.006921
     6  H   -0.002387   0.000518  -0.000946   0.001978  -0.006921   0.024305
     7  H    0.001112  -0.001686   0.000591   0.001179  -0.000730  -0.002024
     8  H    0.000136  -0.000504   0.002246   0.001449   0.000964  -0.001812
     9  H    0.000588  -0.000500   0.002826  -0.000359  -0.001148  -0.001334
    10  H   -0.000462   0.000014  -0.000074   0.000223   0.000031   0.000293
    11  H    0.000288   0.001630  -0.000390   0.000289   0.000086   0.000042
    12  H   -0.000807   0.007946  -0.026565   0.003209   0.032064   0.000939
               7          8          9         10         11         12
     1  O    0.001112   0.000136   0.000588  -0.000462   0.000288  -0.000807
     2  O   -0.001686  -0.000504  -0.000500   0.000014   0.001630   0.007946
     3  O    0.000591   0.002246   0.002826  -0.000074  -0.000390  -0.026565
     4  C    0.001179   0.001449  -0.000359   0.000223   0.000289   0.003209
     5  C   -0.000730   0.000964  -0.001148   0.000031   0.000086   0.032064
     6  H   -0.002024  -0.001812  -0.001334   0.000293   0.000042   0.000939
     7  H    0.003526   0.000163  -0.000124  -0.000146  -0.000026   0.000365
     8  H    0.000163  -0.009544   0.002463  -0.000003   0.000029  -0.000370
     9  H   -0.000124   0.002463  -0.008244  -0.000046   0.000075  -0.001030
    10  H   -0.000146  -0.000003  -0.000046   0.000082   0.000056   0.000070
    11  H   -0.000026   0.000029   0.000075   0.000056  -0.008921  -0.000939
    12  H    0.000365  -0.000370  -0.001030   0.000070  -0.000939  -0.028087
 Mulliken charges and spin densities:
               1          2
     1  O   -0.423444   0.000282
     2  O   -0.175944   0.190470
     3  O   -0.133549   0.640107
     4  C   -0.096293  -0.007697
     5  C   -0.362776   0.194547
     6  H    0.111788   0.012653
     7  H    0.125329   0.002203
     8  H    0.101932  -0.004782
     9  H    0.125200  -0.006834
    10  H    0.267637   0.000039
    11  H    0.279386  -0.007781
    12  H    0.180736  -0.013207
 Sum of Mulliken charges =  -0.00000   1.00000
 Mulliken charges and spin densities with hydrogens summed into heavy atoms:
               1          2
     1  O   -0.155808   0.000320
     2  O    0.103442   0.182689
     3  O   -0.133549   0.640107
     4  C    0.140823   0.007159
     5  C    0.045092   0.169724
 Electronic spatial extent (au):  <R**2>=            484.7564
 Charge=             -0.0000 electrons
 Dipole moment (field-independent basis, Debye):
    X=              2.9862    Y=             -1.6293    Z=              0.6992  Tot=              3.4729
 Quadrupole moment (field-independent basis, Debye-Ang):
   XX=            -31.7193   YY=            -26.5099   ZZ=            -32.5688
   XY=             -1.0320   XZ=              1.2920   YZ=              0.0499
 Traceless Quadrupole moment (field-independent basis, Debye-Ang):
   XX=             -1.4533   YY=              3.7561   ZZ=             -2.3028
   XY=             -1.0320   XZ=              1.2920   YZ=              0.0499
 Octapole moment (field-independent basis, Debye-Ang**2):
  XXX=              4.8108  YYY=            -17.3430  ZZZ=             -0.8542  XYY=              2.8347
  XXY=             -7.9854  XXZ=             -1.6308  XZZ=             -1.9425  YZZ=             -0.8278
  YYZ=             -0.9845  XYZ=             -0.4524
 Hexadecapole moment (field-independent basis, Debye-Ang**3):
 XXXX=           -330.5392 YYYY=           -164.7205 ZZZZ=            -69.7408 XXXY=            -13.5199
 XXXZ=              0.6799 YYYX=            -15.8255 YYYZ=              4.4016 ZZZX=             -1.5327
 ZZZY=             -0.8972 XXYY=            -76.6592 XXZZ=            -69.1059 YYZZ=            -41.8251
 XXYZ=              3.3774 YYXZ=             -1.4311 ZZXY=             -0.5207
 N-N= 1.969497276761D+02 E-N=-1.113211205133D+03  KE= 3.044605172957D+02
                          Isotropic Fermi Contact Couplings
        Atom                 a.u.       MegaHertz       Gauss      10(-4) cm-1
     1  O(17)              0.00175      -1.06170      -0.37884      -0.35415
     2  O(17)              0.03119     -18.90537      -6.74591      -6.30615
     3  O(17)              0.15512     -94.03065     -33.55247     -31.36525
     4  C(13)             -0.00533      -5.98813      -2.13671      -1.99743
     5  C(13)              0.09697     109.00741      38.89655      36.36096
     6  H(1)               0.00570      25.49171       9.09608       8.50312
     7  H(1)               0.00211       9.43444       3.36644       3.14699
     8  H(1)               0.00005       0.24045       0.08580       0.08021
     9  H(1)              -0.00151      -6.73138      -2.40192      -2.24535
    10  H(1)              -0.00012      -0.55155      -0.19681      -0.18398
    11  H(1)              -0.00369     -16.49602      -5.88619      -5.50248
    12  H(1)              -0.01493     -66.71434     -23.80534     -22.25351
 --------------------------------------------------------
       Center         ----  Spin Dipole Couplings  ----
                      3XX-RR        3YY-RR        3ZZ-RR
 --------------------------------------------------------
     1   Atom        0.001166      0.001505     -0.002671
     2   Atom        0.518951     -0.274998     -0.243953
     3   Atom        1.729718     -1.054845     -0.674873
     4   Atom        0.009918     -0.003812     -0.006105
     5   Atom        0.248955     -0.122907     -0.126048
     6   Atom        0.005437     -0.001480     -0.003958
     7   Atom        0.002463     -0.002630      0.000167
     8   Atom        0.001334      0.003307     -0.004641
     9   Atom        0.003813     -0.015296      0.011484
    10   Atom        0.001666      0.001373     -0.003039
    11   Atom       -0.000174      0.021602     -0.021428
    12   Atom        0.118490     -0.036953     -0.081537
 --------------------------------------------------------
                        XY            XZ            YZ
 --------------------------------------------------------
     1   Atom       -0.006282      0.001740      0.005958
     2   Atom        0.527528      0.588755      0.352343
     3   Atom        1.190846      1.599373      0.602440
     4   Atom       -0.006304     -0.002813      0.001229
     5   Atom        0.032052     -0.008157     -0.000623
     6   Atom       -0.001894      0.001974     -0.000535
     7   Atom       -0.001593      0.005310     -0.004593
     8   Atom        0.009092      0.005214      0.015748
     9   Atom        0.006164     -0.009410     -0.006297
    10   Atom       -0.003483     -0.000467      0.000688
    11   Atom       -0.030328     -0.009696      0.018989
    12   Atom        0.086171      0.030690      0.015288
 --------------------------------------------------------


 ---------------------------------------------------------------------------------
              Anisotropic Spin Dipole Couplings in Principal Axis System
 ---------------------------------------------------------------------------------

       Atom             a.u.   MegaHertz   Gauss  10(-4) cm-1        Axes

              Baa    -0.0096     0.691     0.247     0.231 -0.4618 -0.6095  0.6444
     1 O(17)  Bbb     0.0009    -0.066    -0.024    -0.022  0.6820  0.2205  0.6973
              Bcc     0.0086    -0.625    -0.223    -0.209 -0.5671  0.7615  0.3139
 
              Baa    -0.6148    44.488    15.874    14.840 -0.1016 -0.6357  0.7652
     2 O(17)  Bbb    -0.5098    36.886    13.162    12.304 -0.5997  0.6529  0.4628
              Bcc     1.1246   -81.375   -29.036   -27.144  0.7938  0.4119  0.4475
 
              Baa    -1.4990   108.467    38.704    36.181 -0.1597  0.9186 -0.3616
     3 O(17)  Bbb    -1.4717   106.493    37.999    35.522 -0.5037  0.2392  0.8301
              Bcc     2.9707  -214.959   -76.703   -71.703  0.8490  0.3147  0.4245
 
              Baa    -0.0066    -0.891    -0.318    -0.297  0.0279 -0.3453  0.9381
     4 C(13)  Bbb    -0.0062    -0.836    -0.298    -0.279  0.3921  0.8670  0.3075
              Bcc     0.0129     1.727     0.616     0.576  0.9195 -0.3593 -0.1596
 
              Baa    -0.1262   -16.939    -6.044    -5.650  0.0322 -0.1241  0.9918
     5 C(13)  Bbb    -0.1256   -16.860    -6.016    -5.624 -0.0818  0.9886  0.1263
              Bcc     0.2519    33.799    12.060    11.274  0.9961  0.0852 -0.0216
 
              Baa    -0.0044    -2.329    -0.831    -0.777 -0.1860  0.0596  0.9807
     6 H(1)   Bbb    -0.0020    -1.048    -0.374    -0.350  0.2507  0.9680 -0.0113
              Bcc     0.0063     3.377     1.205     1.126  0.9500 -0.2438  0.1950
 
              Baa    -0.0066    -3.515    -1.254    -1.172 -0.2801  0.6770  0.6806
     7 H(1)   Bbb    -0.0018    -0.952    -0.340    -0.318  0.6828  0.6388 -0.3545
              Bcc     0.0084     4.467     1.594     1.490  0.6748 -0.3654  0.6412
 
              Baa    -0.0171    -9.098    -3.246    -3.035  0.0972 -0.6357  0.7658
     8 H(1)   Bbb    -0.0040    -2.134    -0.761    -0.712  0.8791 -0.3060 -0.3656
              Bcc     0.0211    11.232     4.008     3.747  0.4667  0.7087  0.5291
 
              Baa    -0.0176    -9.384    -3.348    -3.130 -0.2172  0.9662  0.1390
     9 H(1)   Bbb    -0.0024    -1.259    -0.449    -0.420  0.8025  0.0956  0.5890
              Bcc     0.0199    10.643     3.798     3.550 -0.5558 -0.2394  0.7961
 
              Baa    -0.0031    -1.678    -0.599    -0.560 -0.0292 -0.1725  0.9846
    10 H(1)   Bbb    -0.0019    -1.036    -0.370    -0.345  0.6969  0.7026  0.1438
              Bcc     0.0051     2.714     0.968     0.905  0.7165 -0.6904 -0.0997
 
              Baa    -0.0289   -15.396    -5.494    -5.136 -0.1468 -0.4245  0.8935
    11 H(1)   Bbb    -0.0204   -10.883    -3.883    -3.630  0.8279  0.4415  0.3458
              Bcc     0.0493    26.279     9.377     8.766 -0.5413  0.7905  0.2866
 
              Baa    -0.0866   -46.183   -16.479   -15.405 -0.0733 -0.1752  0.9818
    12 H(1)   Bbb    -0.0751   -40.059   -14.294   -13.362 -0.4203  0.8982  0.1289
              Bcc     0.1616    86.242    30.773    28.767  0.9044  0.4032  0.1395
 

 ---------------------------------------------------------------------------------

 No NMR shielding tensors so no spin-rotation constants.
 Leave Link  601 at Sat Jun 22 12:45:56 2019, MaxMem=   671088640 cpu:               8.9 elap:               0.5
 (Enter /shared/centos7/gaussian/g16/l9999.exe)
 1\1\GINC-C0124\FOpt\UM062X\CC-pVTZ\C2H7O3(2)\HARMS.N\22-Jun-2019\0\\#p
  m062x/cc-pVTZ Opt=(ModRedun,Loose,maxcycles=900) Int(Grid=SG1) scf=(m
 axcycle=900)\\Gaussian input prepared by ASE\\0,2\O,-1.511597357,-0.16
 36829722,8.2384695214\O,-2.2646723695,-1.9669041044,6.3937797092\O,-1.
 3066798164,-2.728847024,6.9214450796\C,-0.4090084406,0.1056552911,7.36
 40194262\C,0.4708172936,-1.1180445021,7.2901150123\H,0.1561754144,0.96
 14816818,7.742647848\H,-0.7842756669,0.3642040874,6.368045118\H,1.3269
 836563,-0.9372598232,6.6412843491\H,0.8152474181,-1.401583803,8.283968
 1765\H,-1.9237223053,0.6678191968,8.4838348274\H,-2.48979232,-1.367051
 1171,7.133048304\H,-0.1444429356,-2.0116106112,6.8863958163\\Version=E
 M64L-G16RevA.03\State=2-A\HF=-305.9116703\S2=0.755671\S2-1=0.\S2A=0.75
 0024\RMSD=2.305e-09\RMSF=1.026e-02\Dipole=0.0079607,1.3293989,0.315472
 2\Quadrupole=1.2070335,0.7055654,-1.9125989,-1.6404525,-1.3625142,0.32
 77451\PG=C01 [X(C2H7O3)]\\@


 IF IT'S NOT TRUE, IT'S WELL INVENTED -- DANTE
 Job cpu time:       0 days  3 hours 44 minutes 50.6 seconds.
 Elapsed time:       0 days  0 hours 11 minutes 19.8 seconds.
 File lengths (MBytes):  RWF=    288 Int=      0 D2E=      0 Chk=     32 Scr=     32
 Normal termination of Gaussian 16 at Sat Jun 22 12:45:56 2019.
