 Entering Gaussian System, Link 0=g16
 Initial command:
 /shared/centos7/gaussian/g16/l1.exe "/scratch/harms.n/gauss_scrdir/Gau-44994.inp" -scrdir="/scratch/harms.n/gauss_scrdir/"
 Entering Link 1 = /shared/centos7/gaussian/g16/l1.exe PID=     44995.
  
 Copyright (c) 1988,1990,1992,1993,1995,1998,2003,2009,2016,
            Gaussian, Inc.  All Rights Reserved.
  
 This is part of the Gaussian(R) 16 program.  It is based on
 the Gaussian(R) 09 system (copyright 2009, Gaussian, Inc.),
 the Gaussian(R) 03 system (copyright 2003, Gaussian, Inc.),
 the Gaussian(R) 98 system (copyright 1998, Gaussian, Inc.),
 the Gaussian(R) 94 system (copyright 1995, Gaussian, Inc.),
 the Gaussian 92(TM) system (copyright 1992, Gaussian, Inc.),
 the Gaussian 90(TM) system (copyright 1990, Gaussian, Inc.),
 the Gaussian 88(TM) system (copyright 1988, Gaussian, Inc.),
 the Gaussian 86(TM) system (copyright 1986, Carnegie Mellon
 University), and the Gaussian 82(TM) system (copyright 1983,
 Carnegie Mellon University). Gaussian is a federally registered
 trademark of Gaussian, Inc.
  
 This software contains proprietary and confidential information,
 including trade secrets, belonging to Gaussian, Inc.
  
 This software is provided under written license and may be
 used, copied, transmitted, or stored only in accord with that
 written license.
  
 The following legend is applicable only to US Government
 contracts under FAR:
  
                    RESTRICTED RIGHTS LEGEND
  
 Use, reproduction and disclosure by the US Government is
 subject to restrictions as set forth in subparagraphs (a)
 and (c) of the Commercial Computer Software - Restricted
 Rights clause in FAR 52.227-19.
  
 Gaussian, Inc.
 340 Quinnipiac St., Bldg. 40, Wallingford CT 06492
  
  
 ---------------------------------------------------------------
 Warning -- This program may not be used in any manner that
 competes with the business of Gaussian, Inc. or will provide
 assistance to any competitor of Gaussian, Inc.  The licensee
 of this program is prohibited from giving any competitor of
 Gaussian, Inc. access to this program.  By using this program,
 the user acknowledges that Gaussian, Inc. is engaged in the
 business of creating and licensing software in the field of
 computational chemistry and represents and warrants to the
 licensee that it is not a competitor of Gaussian, Inc. and that
 it will not use this program in any manner prohibited above.
 ---------------------------------------------------------------
  

 Cite this work as:
 Gaussian 16, Revision A.03,
 M. J. Frisch, G. W. Trucks, H. B. Schlegel, G. E. Scuseria, 
 M. A. Robb, J. R. Cheeseman, G. Scalmani, V. Barone, 
 G. A. Petersson, H. Nakatsuji, X. Li, M. Caricato, A. V. Marenich, 
 J. Bloino, B. G. Janesko, R. Gomperts, B. Mennucci, H. P. Hratchian, 
 J. V. Ortiz, A. F. Izmaylov, J. L. Sonnenberg, D. Williams-Young, 
 F. Ding, F. Lipparini, F. Egidi, J. Goings, B. Peng, A. Petrone, 
 T. Henderson, D. Ranasinghe, V. G. Zakrzewski, J. Gao, N. Rega, 
 G. Zheng, W. Liang, M. Hada, M. Ehara, K. Toyota, R. Fukuda, 
 J. Hasegawa, M. Ishida, T. Nakajima, Y. Honda, O. Kitao, H. Nakai, 
 T. Vreven, K. Throssell, J. A. Montgomery, Jr., J. E. Peralta, 
 F. Ogliaro, M. J. Bearpark, J. J. Heyd, E. N. Brothers, K. N. Kudin, 
 V. N. Staroverov, T. A. Keith, R. Kobayashi, J. Normand, 
 K. Raghavachari, A. P. Rendell, J. C. Burant, S. S. Iyengar, 
 J. Tomasi, M. Cossi, J. M. Millam, M. Klene, C. Adamo, R. Cammi, 
 J. W. Ochterski, R. L. Martin, K. Morokuma, O. Farkas, 
 J. B. Foresman, and D. J. Fox, Gaussian, Inc., Wallingford CT, 2016.
 
 ******************************************
 Gaussian 16:  EM64L-G16RevA.03 25-Dec-2016
                30-May-2019 
 ******************************************
 %nprocshared=20
 Will use up to   20 processors via shared memory.
 %mem=5GB
 ----------------------------------------------------------------------
 #p m062x/cc-pVTZ Opt=(ModRedun,Loose,maxcycles=900) Int(Grid=SG1) scf=
 (maxcycle=900)
 ----------------------------------------------------------------------
 1/6=900,7=-1,18=120,19=15,26=2,38=1/1,3;
 2/9=110,12=2,17=6,18=5,40=1/2;
 3/5=16,6=1,11=2,25=1,30=1,71=1,74=-55,75=1/1,2,3;
 4//1;
 5/5=2,7=900,38=5/2;
 6/7=2,8=2,9=2,10=2,28=1/1;
 7//1,2,3,16;
 1/6=900,7=-1,18=20,19=15,26=2/3(2);
 2/9=110/2;
 99//99;
 2/9=110/2;
 3/5=16,6=1,11=2,25=1,30=1,71=1,74=-55,75=1/1,2,3;
 4/5=5,16=3,69=1/1;
 5/5=2,7=900,38=5/2;
 7//1,2,3,16;
 1/6=900,7=-1,18=20,19=15,26=2/3(-5);
 2/9=110/2;
 6/7=2,8=2,9=2,10=2,19=2,28=1/1;
 99/9=1/99;
 Leave Link    1 at Thu May 30 06:29:36 2019, MaxMem=   671088640 cpu:              30.4 elap:               1.6
 (Enter /shared/centos7/gaussian/g16/l101.exe)
 ------------------------------
 Gaussian input prepared by ASE
 ------------------------------
 Symbolic Z-matrix:
 Charge =  0 Multiplicity = 2
 O                    -5.50157   0.98672   7.63893 
 O                    -2.10181   2.19077   6.40377 
 O                    -2.67618   2.40429   5.23914 
 C                    -5.15765   2.30932   7.32922 
 C                    -5.01089   2.57629   5.83742 
 H                    -5.91618   3.01297   7.74027 
 H                    -4.20668   2.53621   7.8558 
 H                    -3.79109   2.12299   5.41336 
 H                    -5.78101   2.05596   5.22983 
 H                    -5.02132   3.66429   5.61439 
 H                    -6.0718    0.65645   6.89629 
 H                    -2.05126   3.09346   6.80765 
 
 Add virtual bond connecting atoms H8         and O3         Dist= 2.20D+00.
 Add virtual bond connecting atoms H8         and C5         Dist= 2.59D+00.
 The following ModRedundant input section has been read:
 B       5       8 F                                                           
 B       3       8 F                                                           
 A       3       8       5 F                                                   
 
 ITRead=  0  0  0  0  0  0  0  0  0  0  0  0
 MicOpt= -1 -1 -1 -1 -1 -1 -1 -1 -1 -1 -1 -1
 NAtoms=     12 NQM=       12 NQMF=       0 NMMI=      0 NMMIF=      0
                NMic=       0 NMicF=      0.
                    Isotopes and Nuclear Properties:
 (Nuclear quadrupole moments (NQMom) in fm**2, nuclear magnetic moments (NMagM)
  in nuclear magnetons)

  Atom         1           2           3           4           5           6           7           8           9          10
 IAtWgt=          16          16          16          12          12           1           1           1           1           1
 AtmWgt=  15.9949146  15.9949146  15.9949146  12.0000000  12.0000000   1.0078250   1.0078250   1.0078250   1.0078250   1.0078250
 NucSpn=           0           0           0           0           0           1           1           1           1           1
 AtZEff=  -0.0000000  -0.0000000  -0.0000000  -0.0000000  -0.0000000  -0.0000000  -0.0000000  -0.0000000  -0.0000000  -0.0000000
 NQMom=    0.0000000   0.0000000   0.0000000   0.0000000   0.0000000   0.0000000   0.0000000   0.0000000   0.0000000   0.0000000
 NMagM=    0.0000000   0.0000000   0.0000000   0.0000000   0.0000000   2.7928460   2.7928460   2.7928460   2.7928460   2.7928460
 AtZNuc=   8.0000000   8.0000000   8.0000000   6.0000000   6.0000000   1.0000000   1.0000000   1.0000000   1.0000000   1.0000000

  Atom        11          12
 IAtWgt=           1           1
 AtmWgt=   1.0078250   1.0078250
 NucSpn=           1           1
 AtZEff=  -0.0000000  -0.0000000
 NQMom=    0.0000000   0.0000000
 NMagM=    2.7928460   2.7928460
 AtZNuc=   1.0000000   1.0000000
 Leave Link  101 at Thu May 30 06:29:37 2019, MaxMem=   671088640 cpu:               5.3 elap:               0.3
 (Enter /shared/centos7/gaussian/g16/l103.exe)

 GradGradGradGradGradGradGradGradGradGradGradGradGradGradGradGradGradGrad
 Berny optimization.
 Initialization pass.
                           ----------------------------
                           !    Initial Parameters    !
                           ! (Angstroms and Degrees)  !
 --------------------------                            --------------------------
 ! Name  Definition              Value          Derivative Info.                !
 --------------------------------------------------------------------------------
 ! R1    R(1,4)                  1.4012         estimate D2E/DX2                !
 ! R2    R(1,11)                 0.9929         estimate D2E/DX2                !
 ! R3    R(2,3)                  1.316          estimate D2E/DX2                !
 ! R4    R(2,12)                 0.9902         estimate D2E/DX2                !
 ! R5    R(3,8)                  1.163          Frozen                          !
 ! R6    R(4,5)                  1.5226         estimate D2E/DX2                !
 ! R7    R(4,6)                  1.1133         estimate D2E/DX2                !
 ! R8    R(4,7)                  1.1105         estimate D2E/DX2                !
 ! R9    R(5,8)                  1.3687         Frozen                          !
 ! R10   R(5,9)                  1.1104         estimate D2E/DX2                !
 ! R11   R(5,10)                 1.1107         estimate D2E/DX2                !
 ! A1    A(4,1,11)             106.8354         estimate D2E/DX2                !
 ! A2    A(3,2,12)             103.611          estimate D2E/DX2                !
 ! A3    A(2,3,8)              104.2759         estimate D2E/DX2                !
 ! A4    A(1,4,5)              113.9359         estimate D2E/DX2                !
 ! A5    A(1,4,6)              110.349          estimate D2E/DX2                !
 ! A6    A(1,4,7)              107.3518         estimate D2E/DX2                !
 ! A7    A(5,4,6)              108.4572         estimate D2E/DX2                !
 ! A8    A(5,4,7)              110.2571         estimate D2E/DX2                !
 ! A9    A(6,4,7)              106.216          estimate D2E/DX2                !
 ! A10   A(4,5,8)              109.3541         estimate D2E/DX2                !
 ! A11   A(4,5,9)              112.7741         estimate D2E/DX2                !
 ! A12   A(4,5,10)             111.5679         estimate D2E/DX2                !
 ! A13   A(8,5,9)              107.0606         estimate D2E/DX2                !
 ! A14   A(8,5,10)             105.6995         estimate D2E/DX2                !
 ! A15   A(9,5,10)             110.0376         estimate D2E/DX2                !
 ! A16   A(3,8,5)              145.1562         Frozen                          !
 ! D1    D(11,1,4,5)           -32.6393         estimate D2E/DX2                !
 ! D2    D(11,1,4,6)            89.6418         estimate D2E/DX2                !
 ! D3    D(11,1,4,7)          -155.0218         estimate D2E/DX2                !
 ! D4    D(12,2,3,8)           -99.1823         estimate D2E/DX2                !
 ! D5    D(2,3,8,5)             86.494          estimate D2E/DX2                !
 ! D6    D(1,4,5,8)            -79.3181         estimate D2E/DX2                !
 ! D7    D(1,4,5,9)             39.6758         estimate D2E/DX2                !
 ! D8    D(1,4,5,10)           164.1153         estimate D2E/DX2                !
 ! D9    D(6,4,5,8)            157.3668         estimate D2E/DX2                !
 ! D10   D(6,4,5,9)            -83.6394         estimate D2E/DX2                !
 ! D11   D(6,4,5,10)            40.8002         estimate D2E/DX2                !
 ! D12   D(7,4,5,8)             41.4546         estimate D2E/DX2                !
 ! D13   D(7,4,5,9)            160.4485         estimate D2E/DX2                !
 ! D14   D(7,4,5,10)           -75.112          estimate D2E/DX2                !
 ! D15   D(4,5,8,3)            -91.0213         estimate D2E/DX2                !
 ! D16   D(9,5,8,3)            146.5014         estimate D2E/DX2                !
 ! D17   D(10,5,8,3)            29.2073         estimate D2E/DX2                !
 --------------------------------------------------------------------------------
 Trust Radius=3.00D-01 FncErr=1.00D-05 GrdErr=1.00D-04 EigMax=2.50D+02 EigMin=1.00D-04
 Number of steps in this run=    100 maximum allowed number of steps=    100.
 GradGradGradGradGradGradGradGradGradGradGradGradGradGradGradGradGradGrad

 Leave Link  103 at Thu May 30 06:29:37 2019, MaxMem=   671088640 cpu:               0.1 elap:               0.0
 (Enter /shared/centos7/gaussian/g16/l202.exe)
                          Input orientation:                          
 ---------------------------------------------------------------------
 Center     Atomic      Atomic             Coordinates (Angstroms)
 Number     Number       Type             X           Y           Z
 ---------------------------------------------------------------------
      1          8           0       -5.501568    0.986723    7.638932
      2          8           0       -2.101807    2.190767    6.403772
      3          8           0       -2.676178    2.404288    5.239137
      4          6           0       -5.157651    2.309317    7.329223
      5          6           0       -5.010888    2.576288    5.837422
      6          1           0       -5.916176    3.012966    7.740267
      7          1           0       -4.206678    2.536210    7.855796
      8          1           0       -3.791091    2.122990    5.413361
      9          1           0       -5.781009    2.055956    5.229833
     10          1           0       -5.021322    3.664288    5.614387
     11          1           0       -6.071797    0.656449    6.896293
     12          1           0       -2.051255    3.093465    6.807655
 ---------------------------------------------------------------------
                    Distance matrix (angstroms):
                    1          2          3          4          5
     1  O    0.000000
     2  O    3.812311   0.000000
     3  O    3.968795   1.316005   0.000000
     4  C    1.401232   3.195105   3.245796   0.000000
     5  C    2.452126   2.988668   2.416278   1.522592   0.000000
     6  H    2.070707   4.124517   4.138083   1.113301   2.151988
     7  H    2.030930   2.580347   3.034261   1.110454   2.173062
     8  H    3.028200   1.959384   1.162976   2.360663   1.368654
     9  H    2.650491   3.864303   3.124323   2.204588   1.110403
    10  H    3.390983   3.364218   2.688515   2.189793   1.110674
    11  H    0.992852   4.284569   4.163092   1.937799   2.435677
    12  H    4.127231   0.990223   1.823662   3.246015   3.157254
                    6          7          8          9         10
     6  H    0.000000
     7  H    1.778490   0.000000
     8  H    3.274528   2.511763   0.000000
     9  H    2.690059   3.099168   1.999488   0.000000
    10  H    2.396737   2.638204   1.982291   1.819818   0.000000
    11  H    2.507924   2.816526   3.090542   2.195511   3.434221
    12  H    3.976664   2.460687   2.431646   4.180551   3.251310
                   11         12
    11  H    0.000000
    12  H    4.702304   0.000000
 Stoichiometry    C2H7O3(2)
 Framework group  C1[X(C2H7O3)]
 Deg. of freedom    30
 Full point group                 C1      NOp   1
 Largest Abelian subgroup         C1      NOp   1
 Largest concise Abelian subgroup C1      NOp   1
                         Standard orientation:                         
 ---------------------------------------------------------------------
 Center     Atomic      Atomic             Coordinates (Angstroms)
 Number     Number       Type             X           Y           Z
 ---------------------------------------------------------------------
      1          8           0       -1.966671   -0.729192   -0.440836
      2          8           0        1.810219   -0.838672    0.065951
      3          8           0        1.832711    0.413423   -0.338548
      4          6           0       -1.249323   -0.062467    0.561332
      5          6           0       -0.442085    1.125807    0.056696
      6          1           0       -1.939003    0.293408    1.359539
      7          1           0       -0.579001   -0.807198    1.040030
      8          1           0        0.714514    0.676114   -0.520598
      9          1           0       -0.982083    1.716543   -0.712997
     10          1           0       -0.124395    1.787236    0.890471
     11          1           0       -2.232983   -0.043963   -1.108140
     12          1           0        1.881328   -0.766649    1.050987
 ---------------------------------------------------------------------
 Rotational constants (GHZ):           8.2529701           2.3092436           2.0308551
 Leave Link  202 at Thu May 30 06:29:37 2019, MaxMem=   671088640 cpu:               0.5 elap:               0.0
 (Enter /shared/centos7/gaussian/g16/l301.exe)
 Standard basis: CC-pVTZ (5D, 7F)
 Ernie: Thresh=  0.10000D-02 Tol=  0.10000D-05 Strict=F.
 Ernie:  15 primitive shells out of 186 were deleted.
 There are   280 symmetry adapted cartesian basis functions of A   symmetry.
 There are   248 symmetry adapted basis functions of A   symmetry.
   248 basis functions,   379 primitive gaussians,   280 cartesian basis functions
    22 alpha electrons       21 beta electrons
       nuclear repulsion energy       187.4300983780 Hartrees.
 IExCor= 4336 DFT=T Ex+Corr=M062X ExCW=0 ScaHFX=  0.540000
 ScaDFX=  1.000000  1.000000  1.000000  1.000000 ScalE2=  1.000000  1.000000
 IRadAn=      1 IRanWt=     -1 IRanGd=            0 ICorTp=0 IEmpDi=  4
 NAtoms=   12 NActive=   12 NUniq=   12 SFac= 1.00D+00 NAtFMM=   60 NAOKFM=F Big=F
 Integral buffers will be    131072 words long.
 Raffenetti 2 integral format.
 Two-electron integral symmetry is turned on.
 Leave Link  301 at Thu May 30 06:29:37 2019, MaxMem=   671088640 cpu:               1.6 elap:               0.1
 (Enter /shared/centos7/gaussian/g16/l302.exe)
 NPDir=0 NMtPBC=     1 NCelOv=     1 NCel=       1 NClECP=     1 NCelD=      1
         NCelK=      1 NCelE2=     1 NClLst=     1 CellRange=     0.0.
 One-electron integrals computed using PRISM.
 One-electron integral symmetry used in STVInt
 NBasis=   248 RedAO= T EigKep=  9.48D-04  NBF=   248
 NBsUse=   248 1.00D-06 EigRej= -1.00D+00 NBFU=   248
 Precomputing XC quadrature grid using
 IXCGrd= 4 IRadAn=           1 IRanWt=          -1 IRanGd=           0 AccXCQ= 0.00D+00.
 Generated NRdTot=       0 NPtTot=           0 NUsed=           0 NTot=          32
 NSgBfM=   280   280   280   280   280 MxSgAt=    12 MxSgA2=    12.
 Leave Link  302 at Thu May 30 06:29:37 2019, MaxMem=   671088640 cpu:               4.9 elap:               0.3
 (Enter /shared/centos7/gaussian/g16/l303.exe)
 DipDrv:  MaxL=1.
 Leave Link  303 at Thu May 30 06:29:37 2019, MaxMem=   671088640 cpu:               0.5 elap:               0.0
 (Enter /shared/centos7/gaussian/g16/l401.exe)
 ExpMin= 1.03D-01 ExpMax= 1.53D+04 ExpMxC= 5.22D+02 IAcc=1 IRadAn=         1 AccDes= 0.00D+00
 Harris functional with IExCor= 1009 and IRadAn=       1 diagonalized for initial guess.
 HarFok:  IExCor= 1009 AccDes= 0.00D+00 IRadAn=         1 IDoV= 1 UseB2=F ITyADJ=14
 ICtDFT=  3500011 ScaDFX=  1.000000  1.000000  1.000000  1.000000
 FoFCou: FMM=F IPFlag=           0 FMFlag=      100000 FMFlg1=           0
         NFxFlg=           0 DoJE=T BraDBF=F KetDBF=T FulRan=T
         wScrn=  0.000000 ICntrl=       500 IOpCl=  0 I1Cent=   200000004 NGrid=           0
         NMat0=    1 NMatS0=      1 NMatT0=    0 NMatD0=    1 NMtDS0=    0 NMtDT0=    0
 Petite list used in FoFCou.
 Harris En= -305.763881060962    
 JPrj=0 DoOrth=F DoCkMO=F.
 Initial guess <Sx>= 0.0000 <Sy>= 0.0000 <Sz>= 0.5000 <S**2>= 0.7500 S= 0.5000
 Leave Link  401 at Thu May 30 06:29:38 2019, MaxMem=   671088640 cpu:               9.1 elap:               0.5
 (Enter /shared/centos7/gaussian/g16/l502.exe)
 Integral symmetry usage will be decided dynamically.
 UHF open shell SCF:
 Using DIIS extrapolation, IDIIS=  1040.
 NGot=   671088640 LenX=   670923676 LenY=   670844835
 Requested convergence on RMS density matrix=1.00D-08 within 900 cycles.
 Requested convergence on MAX density matrix=1.00D-06.
 Requested convergence on             energy=1.00D-06.
 No special actions if energy rises.
 Fock matrices will be formed incrementally for  20 cycles.

 Cycle   1  Pass 1  IDiag  1:
 FoFJK:  IHMeth= 1 ICntrl=       0 DoSepK=F KAlg= 0 I1Cent=           0 FoldK=F
 IRaf= 970000000 NMat=       1 IRICut=       1 DoRegI=T DoRafI=F ISym2E= 0 IDoP0=0 IntGTp=1.
 FoFCou: FMM=F IPFlag=           0 FMFlag=      100000 FMFlg1=           0
         NFxFlg=           0 DoJE=F BraDBF=F KetDBF=F FulRan=T
         wScrn=  0.000000 ICntrl=         0 IOpCl=  1 I1Cent=           0 NGrid=           0
         NMat0=    1 NMatS0=      1 NMatT0=    0 NMatD0=    1 NMtDS0=    0 NMtDT0=    0
 Symmetry not used in FoFCou.
 E= -305.729473054653    
 DIIS: error= 1.89D-02 at cycle   1 NSaved=   1.
 NSaved= 1 IEnMin= 1 EnMin= -305.729473054653     IErMin= 1 ErrMin= 1.89D-02
 ErrMax= 1.89D-02  0.00D+00 EMaxC= 1.00D-01 BMatC= 8.09D-01 BMatP= 8.09D-01
 IDIUse=3 WtCom= 8.11D-01 WtEn= 1.89D-01
 Coeff-Com:  0.100D+01
 Coeff-En:   0.100D+01
 Coeff:      0.100D+01
 Gap=     0.331 Goal=   None    Shift=    0.000
 Gap=     0.326 Goal=   None    Shift=    0.000
 GapD=    0.326 DampG=1.000 DampE=0.500 DampFc=0.5000 IDamp=-1.
 Damping current iteration by 5.00D-01
 RMSDP=2.28D-03 MaxDP=1.14D-01              OVMax= 2.42D-01

 Cycle   2  Pass 1  IDiag  1:
 RMSU=  1.14D-03    CP:  1.00D+00
 E= -305.804031660414     Delta-E=       -0.074558605760 Rises=F Damp=T
 DIIS: error= 6.42D-03 at cycle   2 NSaved=   2.
 NSaved= 2 IEnMin= 2 EnMin= -305.804031660414     IErMin= 2 ErrMin= 6.42D-03
 ErrMax= 6.42D-03  0.00D+00 EMaxC= 1.00D-01 BMatC= 7.76D-02 BMatP= 8.09D-01
 IDIUse=3 WtCom= 9.36D-01 WtEn= 6.42D-02
 Coeff-Com: -0.953D-01 0.110D+01
 Coeff-En:   0.000D+00 0.100D+01
 Coeff:     -0.892D-01 0.109D+01
 Gap=     0.343 Goal=   None    Shift=    0.000
 Gap=     0.286 Goal=   None    Shift=    0.000
 RMSDP=5.04D-04 MaxDP=1.59D-02 DE=-7.46D-02 OVMax= 9.64D-02

 Cycle   3  Pass 1  IDiag  1:
 RMSU=  4.92D-04    CP:  1.01D+00  9.17D-01
 E= -305.877015214370     Delta-E=       -0.072983553956 Rises=F Damp=F
 DIIS: error= 2.36D-03 at cycle   3 NSaved=   3.
 NSaved= 3 IEnMin= 3 EnMin= -305.877015214370     IErMin= 3 ErrMin= 2.36D-03
 ErrMax= 2.36D-03  0.00D+00 EMaxC= 1.00D-01 BMatC= 1.76D-02 BMatP= 7.76D-02
 IDIUse=3 WtCom= 9.76D-01 WtEn= 2.36D-02
 Coeff-Com: -0.891D-01 0.336D+00 0.753D+00
 Coeff-En:   0.000D+00 0.000D+00 0.100D+01
 Coeff:     -0.870D-01 0.328D+00 0.759D+00
 Gap=     0.340 Goal=   None    Shift=    0.000
 Gap=     0.260 Goal=   None    Shift=    0.000
 RMSDP=2.13D-04 MaxDP=7.30D-03 DE=-7.30D-02 OVMax= 3.46D-02

 Cycle   4  Pass 1  IDiag  1:
 RMSU=  1.80D-04    CP:  1.00D+00  9.91D-01  8.44D-01
 E= -305.880133370703     Delta-E=       -0.003118156333 Rises=F Damp=F
 DIIS: error= 1.41D-03 at cycle   4 NSaved=   4.
 NSaved= 4 IEnMin= 4 EnMin= -305.880133370703     IErMin= 4 ErrMin= 1.41D-03
 ErrMax= 1.41D-03  0.00D+00 EMaxC= 1.00D-01 BMatC= 3.83D-03 BMatP= 1.76D-02
 IDIUse=3 WtCom= 9.86D-01 WtEn= 1.41D-02
 Coeff-Com: -0.285D-01 0.631D-01 0.350D+00 0.616D+00
 Coeff-En:   0.000D+00 0.000D+00 0.000D+00 0.100D+01
 Coeff:     -0.281D-01 0.622D-01 0.345D+00 0.621D+00
 Gap=     0.338 Goal=   None    Shift=    0.000
 Gap=     0.263 Goal=   None    Shift=    0.000
 RMSDP=8.06D-05 MaxDP=3.24D-03 DE=-3.12D-03 OVMax= 7.39D-03

 Cycle   5  Pass 1  IDiag  1:
 RMSU=  5.90D-05    CP:  1.00D+00  9.85D-01  9.41D-01  8.52D-01
 E= -305.880904216065     Delta-E=       -0.000770845362 Rises=F Damp=F
 DIIS: error= 4.21D-04 at cycle   5 NSaved=   5.
 NSaved= 5 IEnMin= 5 EnMin= -305.880904216065     IErMin= 5 ErrMin= 4.21D-04
 ErrMax= 4.21D-04  0.00D+00 EMaxC= 1.00D-01 BMatC= 1.94D-04 BMatP= 3.83D-03
 IDIUse=3 WtCom= 9.96D-01 WtEn= 4.21D-03
 Coeff-Com:  0.588D-02-0.247D-01-0.771D-02 0.839D-01 0.943D+00
 Coeff-En:   0.000D+00 0.000D+00 0.000D+00 0.000D+00 0.100D+01
 Coeff:      0.585D-02-0.246D-01-0.768D-02 0.835D-01 0.943D+00
 Gap=     0.340 Goal=   None    Shift=    0.000
 Gap=     0.264 Goal=   None    Shift=    0.000
 RMSDP=4.59D-05 MaxDP=1.95D-03 DE=-7.71D-04 OVMax= 8.12D-03

 Cycle   6  Pass 1  IDiag  1:
 RMSU=  2.36D-05    CP:  1.00D+00  9.78D-01  9.67D-01  1.02D+00  1.33D+00
 E= -305.881049290529     Delta-E=       -0.000145074465 Rises=F Damp=F
 DIIS: error= 2.51D-04 at cycle   6 NSaved=   6.
 NSaved= 6 IEnMin= 6 EnMin= -305.881049290529     IErMin= 6 ErrMin= 2.51D-04
 ErrMax= 2.51D-04  0.00D+00 EMaxC= 1.00D-01 BMatC= 6.26D-05 BMatP= 1.94D-04
 IDIUse=3 WtCom= 9.97D-01 WtEn= 2.51D-03
 Coeff-Com:  0.737D-02-0.167D-01-0.759D-01-0.166D+00 0.125D+00 0.113D+01
 Coeff-En:   0.000D+00 0.000D+00 0.000D+00 0.000D+00 0.000D+00 0.100D+01
 Coeff:      0.735D-02-0.167D-01-0.758D-01-0.165D+00 0.124D+00 0.113D+01
 Gap=     0.341 Goal=   None    Shift=    0.000
 Gap=     0.266 Goal=   None    Shift=    0.000
 RMSDP=3.67D-05 MaxDP=1.24D-03 DE=-1.45D-04 OVMax= 6.05D-03

 Cycle   7  Pass 1  IDiag  1:
 RMSU=  1.38D-05    CP:  1.00D+00  9.74D-01  9.88D-01  1.12D+00  1.76D+00
                    CP:  1.39D+00
 E= -305.881102282582     Delta-E=       -0.000052992053 Rises=F Damp=F
 DIIS: error= 1.31D-04 at cycle   7 NSaved=   7.
 NSaved= 7 IEnMin= 7 EnMin= -305.881102282582     IErMin= 7 ErrMin= 1.31D-04
 ErrMax= 1.31D-04  0.00D+00 EMaxC= 1.00D-01 BMatC= 2.10D-05 BMatP= 6.26D-05
 IDIUse=3 WtCom= 9.99D-01 WtEn= 1.31D-03
 Coeff-Com:  0.287D-02-0.461D-02-0.342D-01-0.982D-01-0.745D-01 0.575D+00
 Coeff-Com:  0.634D+00
 Coeff-En:   0.000D+00 0.000D+00 0.000D+00 0.000D+00 0.000D+00 0.000D+00
 Coeff-En:   0.100D+01
 Coeff:      0.287D-02-0.460D-02-0.341D-01-0.981D-01-0.744D-01 0.574D+00
 Coeff:      0.634D+00
 Gap=     0.341 Goal=   None    Shift=    0.000
 Gap=     0.266 Goal=   None    Shift=    0.000
 RMSDP=1.14D-05 MaxDP=4.06D-04 DE=-5.30D-05 OVMax= 2.43D-03

 Cycle   8  Pass 1  IDiag  1:
 RMSU=  5.74D-06    CP:  1.00D+00  9.74D-01  9.92D-01  1.14D+00  1.87D+00
                    CP:  1.64D+00  9.84D-01
 E= -305.881111842280     Delta-E=       -0.000009559698 Rises=F Damp=F
 DIIS: error= 4.64D-05 at cycle   8 NSaved=   8.
 NSaved= 8 IEnMin= 8 EnMin= -305.881111842280     IErMin= 8 ErrMin= 4.64D-05
 ErrMax= 4.64D-05  0.00D+00 EMaxC= 1.00D-01 BMatC= 3.10D-06 BMatP= 2.10D-05
 IDIUse=1 WtCom= 1.00D+00 WtEn= 0.00D+00
 Coeff-Com: -0.179D-02 0.409D-02 0.203D-01 0.358D-01-0.170D-01-0.293D+00
 Coeff-Com:  0.742D-01 0.118D+01
 Coeff:     -0.179D-02 0.409D-02 0.203D-01 0.358D-01-0.170D-01-0.293D+00
 Coeff:      0.742D-01 0.118D+01
 Gap=     0.341 Goal=   None    Shift=    0.000
 Gap=     0.267 Goal=   None    Shift=    0.000
 RMSDP=8.66D-06 MaxDP=3.72D-04 DE=-9.56D-06 OVMax= 1.99D-03

 Cycle   9  Pass 1  IDiag  1:
 RMSU=  2.92D-06    CP:  1.00D+00  9.74D-01  9.95D-01  1.16D+00  1.93D+00
                    CP:  1.78D+00  1.32D+00  1.57D+00
 E= -305.881115018522     Delta-E=       -0.000003176242 Rises=F Damp=F
 DIIS: error= 2.54D-05 at cycle   9 NSaved=   9.
 NSaved= 9 IEnMin= 9 EnMin= -305.881115018522     IErMin= 9 ErrMin= 2.54D-05
 ErrMax= 2.54D-05  0.00D+00 EMaxC= 1.00D-01 BMatC= 7.47D-07 BMatP= 3.10D-06
 IDIUse=1 WtCom= 1.00D+00 WtEn= 0.00D+00
 Coeff-Com: -0.986D-03 0.196D-02 0.125D-01 0.261D-01 0.559D-02-0.208D+00
 Coeff-Com: -0.443D-01 0.407D+00 0.800D+00
 Coeff:     -0.986D-03 0.196D-02 0.125D-01 0.261D-01 0.559D-02-0.208D+00
 Coeff:     -0.443D-01 0.407D+00 0.800D+00
 Gap=     0.341 Goal=   None    Shift=    0.000
 Gap=     0.267 Goal=   None    Shift=    0.000
 RMSDP=3.80D-06 MaxDP=1.80D-04 DE=-3.18D-06 OVMax= 9.35D-04

 Cycle  10  Pass 1  IDiag  1:
 RMSU=  1.40D-06    CP:  1.00D+00  9.74D-01  9.96D-01  1.16D+00  1.96D+00
                    CP:  1.83D+00  1.46D+00  1.87D+00  1.33D+00
 E= -305.881115743860     Delta-E=       -0.000000725338 Rises=F Damp=F
 DIIS: error= 1.66D-05 at cycle  10 NSaved=  10.
 NSaved=10 IEnMin=10 EnMin= -305.881115743860     IErMin=10 ErrMin= 1.66D-05
 ErrMax= 1.66D-05  0.00D+00 EMaxC= 1.00D-01 BMatC= 2.88D-07 BMatP= 7.47D-07
 IDIUse=1 WtCom= 1.00D+00 WtEn= 0.00D+00
 Coeff-Com:  0.137D-03-0.404D-03-0.409D-05 0.155D-02 0.125D-01-0.838D-02
 Coeff-Com: -0.360D-01-0.222D+00 0.387D+00 0.865D+00
 Coeff:      0.137D-03-0.404D-03-0.409D-05 0.155D-02 0.125D-01-0.838D-02
 Coeff:     -0.360D-01-0.222D+00 0.387D+00 0.865D+00
 Gap=     0.341 Goal=   None    Shift=    0.000
 Gap=     0.267 Goal=   None    Shift=    0.000
 RMSDP=2.51D-06 MaxDP=1.31D-04 DE=-7.25D-07 OVMax= 7.05D-04

 Cycle  11  Pass 1  IDiag  1:
 RMSU=  7.57D-07    CP:  1.00D+00  9.74D-01  9.96D-01  1.16D+00  1.97D+00
                    CP:  1.85D+00  1.53D+00  2.10D+00  1.78D+00  1.37D+00
 E= -305.881116044927     Delta-E=       -0.000000301067 Rises=F Damp=F
 DIIS: error= 7.74D-06 at cycle  11 NSaved=  11.
 NSaved=11 IEnMin=11 EnMin= -305.881116044927     IErMin=11 ErrMin= 7.74D-06
 ErrMax= 7.74D-06  0.00D+00 EMaxC= 1.00D-01 BMatC= 5.78D-08 BMatP= 2.88D-07
 IDIUse=1 WtCom= 1.00D+00 WtEn= 0.00D+00
 Coeff-Com:  0.342D-03-0.733D-03-0.385D-02-0.775D-02 0.954D-03 0.590D-01
 Coeff-Com:  0.488D-02-0.205D+00-0.103D+00 0.241D+00 0.101D+01
 Coeff:      0.342D-03-0.733D-03-0.385D-02-0.775D-02 0.954D-03 0.590D-01
 Coeff:      0.488D-02-0.205D+00-0.103D+00 0.241D+00 0.101D+01
 Gap=     0.341 Goal=   None    Shift=    0.000
 Gap=     0.267 Goal=   None    Shift=    0.000
 RMSDP=1.76D-06 MaxDP=9.55D-05 DE=-3.01D-07 OVMax= 5.20D-04

 Cycle  12  Pass 1  IDiag  1:
 RMSU=  3.87D-07    CP:  1.00D+00  9.74D-01  9.97D-01  1.16D+00  1.98D+00
                    CP:  1.87D+00  1.57D+00  2.23D+00  2.10D+00  1.89D+00
                    CP:  1.49D+00
 E= -305.881116149015     Delta-E=       -0.000000104088 Rises=F Damp=F
 DIIS: error= 3.82D-06 at cycle  12 NSaved=  12.
 NSaved=12 IEnMin=12 EnMin= -305.881116149015     IErMin=12 ErrMin= 3.82D-06
 ErrMax= 3.82D-06  0.00D+00 EMaxC= 1.00D-01 BMatC= 1.52D-08 BMatP= 5.78D-08
 IDIUse=1 WtCom= 1.00D+00 WtEn= 0.00D+00
 Coeff-Com:  0.427D-04-0.709D-04-0.100D-02-0.219D-02-0.277D-02 0.175D-01
 Coeff-Com:  0.882D-02 0.771D-02-0.112D+00-0.191D+00 0.256D+00 0.102D+01
 Coeff:      0.427D-04-0.709D-04-0.100D-02-0.219D-02-0.277D-02 0.175D-01
 Coeff:      0.882D-02 0.771D-02-0.112D+00-0.191D+00 0.256D+00 0.102D+01
 Gap=     0.341 Goal=   None    Shift=    0.000
 Gap=     0.267 Goal=   None    Shift=    0.000
 RMSDP=8.39D-07 MaxDP=4.50D-05 DE=-1.04D-07 OVMax= 2.52D-04

 Cycle  13  Pass 1  IDiag  1:
 RMSU=  1.88D-07    CP:  1.00D+00  9.74D-01  9.97D-01  1.16D+00  1.98D+00
                    CP:  1.88D+00  1.58D+00  2.28D+00  2.25D+00  2.16D+00
                    CP:  1.95D+00  1.53D+00
 E= -305.881116172741     Delta-E=       -0.000000023725 Rises=F Damp=F
 DIIS: error= 1.50D-06 at cycle  13 NSaved=  13.
 NSaved=13 IEnMin=13 EnMin= -305.881116172741     IErMin=13 ErrMin= 1.50D-06
 ErrMax= 1.50D-06  0.00D+00 EMaxC= 1.00D-01 BMatC= 3.31D-09 BMatP= 1.52D-08
 IDIUse=1 WtCom= 1.00D+00 WtEn= 0.00D+00
 Coeff-Com: -0.105D-03 0.229D-03 0.932D-03 0.194D-02-0.113D-02-0.133D-01
 Coeff-Com: -0.114D-02 0.672D-01 0.720D-02-0.127D+00-0.232D+00 0.219D+00
 Coeff-Com:  0.108D+01
 Coeff:     -0.105D-03 0.229D-03 0.932D-03 0.194D-02-0.113D-02-0.133D-01
 Coeff:     -0.114D-02 0.672D-01 0.720D-02-0.127D+00-0.232D+00 0.219D+00
 Coeff:      0.108D+01
 Gap=     0.341 Goal=   None    Shift=    0.000
 Gap=     0.267 Goal=   None    Shift=    0.000
 RMSDP=4.32D-07 MaxDP=2.13D-05 DE=-2.37D-08 OVMax= 1.26D-04

 Cycle  14  Pass 1  IDiag  1:
 RMSU=  8.48D-08    CP:  1.00D+00  9.74D-01  9.97D-01  1.16D+00  1.98D+00
                    CP:  1.88D+00  1.59D+00  2.31D+00  2.31D+00  2.30D+00
                    CP:  2.22D+00  2.00D+00  1.37D+00
 E= -305.881116177652     Delta-E=       -0.000000004911 Rises=F Damp=F
 DIIS: error= 5.11D-07 at cycle  14 NSaved=  14.
 NSaved=14 IEnMin=14 EnMin= -305.881116177652     IErMin=14 ErrMin= 5.11D-07
 ErrMax= 5.11D-07  0.00D+00 EMaxC= 1.00D-01 BMatC= 3.28D-10 BMatP= 3.31D-09
 IDIUse=1 WtCom= 1.00D+00 WtEn= 0.00D+00
 Coeff-Com: -0.580D-05 0.125D-04 0.138D-03 0.341D-03 0.146D-03-0.256D-02
 Coeff-Com: -0.200D-02 0.216D-02 0.133D-01 0.261D-01-0.409D-01-0.156D+00
 Coeff-Com:  0.518D-01 0.111D+01
 Coeff:     -0.580D-05 0.125D-04 0.138D-03 0.341D-03 0.146D-03-0.256D-02
 Coeff:     -0.200D-02 0.216D-02 0.133D-01 0.261D-01-0.409D-01-0.156D+00
 Coeff:      0.518D-01 0.111D+01
 Gap=     0.341 Goal=   None    Shift=    0.000
 Gap=     0.267 Goal=   None    Shift=    0.000
 RMSDP=1.26D-07 MaxDP=5.85D-06 DE=-4.91D-09 OVMax= 3.54D-05

 Cycle  15  Pass 1  IDiag  1:
 RMSU=  2.90D-08    CP:  1.00D+00  9.74D-01  9.97D-01  1.16D+00  1.98D+00
                    CP:  1.88D+00  1.59D+00  2.32D+00  2.32D+00  2.34D+00
                    CP:  2.28D+00  2.15D+00  1.64D+00  1.35D+00
 E= -305.881116178069     Delta-E=       -0.000000000418 Rises=F Damp=F
 DIIS: error= 1.57D-07 at cycle  15 NSaved=  15.
 NSaved=15 IEnMin=15 EnMin= -305.881116178069     IErMin=15 ErrMin= 1.57D-07
 ErrMax= 1.57D-07  0.00D+00 EMaxC= 1.00D-01 BMatC= 3.44D-11 BMatP= 3.28D-10
 IDIUse=1 WtCom= 1.00D+00 WtEn= 0.00D+00
 Coeff-Com:  0.123D-04-0.264D-04-0.111D-03-0.209D-03 0.723D-04 0.168D-02
 Coeff-Com: -0.506D-04-0.754D-02-0.427D-03 0.148D-01 0.288D-01-0.316D-01
 Coeff-Com: -0.131D+00 0.488D-01 0.108D+01
 Coeff:      0.123D-04-0.264D-04-0.111D-03-0.209D-03 0.723D-04 0.168D-02
 Coeff:     -0.506D-04-0.754D-02-0.427D-03 0.148D-01 0.288D-01-0.316D-01
 Coeff:     -0.131D+00 0.488D-01 0.108D+01
 Gap=     0.341 Goal=   None    Shift=    0.000
 Gap=     0.267 Goal=   None    Shift=    0.000
 RMSDP=3.13D-08 MaxDP=1.03D-06 DE=-4.18D-10 OVMax= 6.00D-06

 Cycle  16  Pass 1  IDiag  1:
 RMSU=  8.11D-09    CP:  1.00D+00  9.74D-01  9.97D-01  1.16D+00  1.98D+00
                    CP:  1.88D+00  1.59D+00  2.32D+00  2.33D+00  2.35D+00
                    CP:  2.29D+00  2.18D+00  1.70D+00  1.54D+00  1.40D+00
 E= -305.881116178096     Delta-E=       -0.000000000027 Rises=F Damp=F
 DIIS: error= 5.92D-08 at cycle  16 NSaved=  16.
 NSaved=16 IEnMin=16 EnMin= -305.881116178096     IErMin=16 ErrMin= 5.92D-08
 ErrMax= 5.92D-08  0.00D+00 EMaxC= 1.00D-01 BMatC= 2.92D-12 BMatP= 3.44D-11
 IDIUse=1 WtCom= 1.00D+00 WtEn= 0.00D+00
 Coeff-Com: -0.560D-06 0.987D-06-0.731D-05-0.118D-04-0.268D-04 0.180D-03
 Coeff-Com:  0.742D-04 0.120D-03-0.993D-03-0.275D-02 0.306D-02 0.127D-01
 Coeff-Com: -0.276D-02-0.869D-01-0.507D-01 0.113D+01
 Coeff:     -0.560D-06 0.987D-06-0.731D-05-0.118D-04-0.268D-04 0.180D-03
 Coeff:      0.742D-04 0.120D-03-0.993D-03-0.275D-02 0.306D-02 0.127D-01
 Coeff:     -0.276D-02-0.869D-01-0.507D-01 0.113D+01
 Gap=     0.341 Goal=   None    Shift=    0.000
 Gap=     0.267 Goal=   None    Shift=    0.000
 RMSDP=9.14D-09 MaxDP=2.60D-07 DE=-2.65D-11 OVMax= 1.55D-06

 SCF Done:  E(UM062X) =  -305.881116178     A.U. after   16 cycles
            NFock= 16  Conv=0.91D-08     -V/T= 2.0053
 <Sx>= 0.0000 <Sy>= 0.0000 <Sz>= 0.5000 <S**2>= 0.7596 S= 0.5048
 <L.S>= 0.000000000000E+00
 KE= 3.042701657620D+02 PE=-1.093933602485D+03 EE= 2.963522221669D+02
 Annihilation of the first spin contaminant:
 S**2 before annihilation     0.7596,   after     0.7500
 Leave Link  502 at Thu May 30 06:30:05 2019, MaxMem=   671088640 cpu:             537.9 elap:              27.0
 (Enter /shared/centos7/gaussian/g16/l601.exe)
 Copying SCF densities to generalized density rwf, IOpCl= 1 IROHF=0.

 **********************************************************************

            Population analysis using the SCF density.

 **********************************************************************

 Orbital symmetries:
 Alpha Orbitals:
       Occupied  (A) (A) (A) (A) (A) (A) (A) (A) (A) (A) (A) (A)
                 (A) (A) (A) (A) (A) (A) (A) (A) (A) (A)
       Virtual   (A) (A) (A) (A) (A) (A) (A) (A) (A) (A) (A) (A)
                 (A) (A) (A) (A) (A) (A) (A) (A) (A) (A) (A) (A)
                 (A) (A) (A) (A) (A) (A) (A) (A) (A) (A) (A) (A)
                 (A) (A) (A) (A) (A) (A) (A) (A) (A) (A) (A) (A)
                 (A) (A) (A) (A) (A) (A) (A) (A) (A) (A) (A) (A)
                 (A) (A) (A) (A) (A) (A) (A) (A) (A) (A) (A) (A)
                 (A) (A) (A) (A) (A) (A) (A) (A) (A) (A) (A) (A)
                 (A) (A) (A) (A) (A) (A) (A) (A) (A) (A) (A) (A)
                 (A) (A) (A) (A) (A) (A) (A) (A) (A) (A) (A) (A)
                 (A) (A) (A) (A) (A) (A) (A) (A) (A) (A) (A) (A)
                 (A) (A) (A) (A) (A) (A) (A) (A) (A) (A) (A) (A)
                 (A) (A) (A) (A) (A) (A) (A) (A) (A) (A) (A) (A)
                 (A) (A) (A) (A) (A) (A) (A) (A) (A) (A) (A) (A)
                 (A) (A) (A) (A) (A) (A) (A) (A) (A) (A) (A) (A)
                 (A) (A) (A) (A) (A) (A) (A) (A) (A) (A) (A) (A)
                 (A) (A) (A) (A) (A) (A) (A) (A) (A) (A) (A) (A)
                 (A) (A) (A) (A) (A) (A) (A) (A) (A) (A) (A) (A)
                 (A) (A) (A) (A) (A) (A) (A) (A) (A) (A) (A) (A)
                 (A) (A) (A) (A) (A) (A) (A) (A) (A) (A)
 Beta  Orbitals:
       Occupied  (A) (A) (A) (A) (A) (A) (A) (A) (A) (A) (A) (A)
                 (A) (A) (A) (A) (A) (A) (A) (A) (A)
       Virtual   (A) (A) (A) (A) (A) (A) (A) (A) (A) (A) (A) (A)
                 (A) (A) (A) (A) (A) (A) (A) (A) (A) (A) (A) (A)
                 (A) (A) (A) (A) (A) (A) (A) (A) (A) (A) (A) (A)
                 (A) (A) (A) (A) (A) (A) (A) (A) (A) (A) (A) (A)
                 (A) (A) (A) (A) (A) (A) (A) (A) (A) (A) (A) (A)
                 (A) (A) (A) (A) (A) (A) (A) (A) (A) (A) (A) (A)
                 (A) (A) (A) (A) (A) (A) (A) (A) (A) (A) (A) (A)
                 (A) (A) (A) (A) (A) (A) (A) (A) (A) (A) (A) (A)
                 (A) (A) (A) (A) (A) (A) (A) (A) (A) (A) (A) (A)
                 (A) (A) (A) (A) (A) (A) (A) (A) (A) (A) (A) (A)
                 (A) (A) (A) (A) (A) (A) (A) (A) (A) (A) (A) (A)
                 (A) (A) (A) (A) (A) (A) (A) (A) (A) (A) (A) (A)
                 (A) (A) (A) (A) (A) (A) (A) (A) (A) (A) (A) (A)
                 (A) (A) (A) (A) (A) (A) (A) (A) (A) (A) (A) (A)
                 (A) (A) (A) (A) (A) (A) (A) (A) (A) (A) (A) (A)
                 (A) (A) (A) (A) (A) (A) (A) (A) (A) (A) (A) (A)
                 (A) (A) (A) (A) (A) (A) (A) (A) (A) (A) (A) (A)
                 (A) (A) (A) (A) (A) (A) (A) (A) (A) (A) (A) (A)
                 (A) (A) (A) (A) (A) (A) (A) (A) (A) (A) (A)
 The electronic state is 2-A.
 Alpha  occ. eigenvalues --  -19.70729 -19.69504 -19.62734 -10.59913 -10.56243
 Alpha  occ. eigenvalues --   -1.32383  -1.14962  -0.98815  -0.85132  -0.72102
 Alpha  occ. eigenvalues --   -0.65326  -0.61421  -0.56443  -0.55565  -0.53412
 Alpha  occ. eigenvalues --   -0.52825  -0.45848  -0.41614  -0.40941  -0.37900
 Alpha  occ. eigenvalues --   -0.36464  -0.29518
 Alpha virt. eigenvalues --    0.04620   0.06348   0.10338   0.10876   0.13905
 Alpha virt. eigenvalues --    0.15806   0.17307   0.19836   0.21500   0.24349
 Alpha virt. eigenvalues --    0.27964   0.31615   0.36859   0.37273   0.38794
 Alpha virt. eigenvalues --    0.41492   0.43000   0.44355   0.45615   0.46910
 Alpha virt. eigenvalues --    0.47374   0.49425   0.50695   0.54056   0.56672
 Alpha virt. eigenvalues --    0.56856   0.58132   0.59582   0.60977   0.66277
 Alpha virt. eigenvalues --    0.69727   0.70668   0.71905   0.72979   0.76669
 Alpha virt. eigenvalues --    0.78100   0.81522   0.82116   0.86262   0.87490
 Alpha virt. eigenvalues --    0.90628   0.93787   0.98941   1.00512   1.03504
 Alpha virt. eigenvalues --    1.07073   1.08493   1.10987   1.12304   1.13743
 Alpha virt. eigenvalues --    1.15983   1.17832   1.21333   1.22669   1.24886
 Alpha virt. eigenvalues --    1.25379   1.29572   1.32246   1.33112   1.34777
 Alpha virt. eigenvalues --    1.36361   1.41317   1.42686   1.49173   1.50146
 Alpha virt. eigenvalues --    1.52955   1.55159   1.60122   1.66064   1.70055
 Alpha virt. eigenvalues --    1.77313   1.87895   1.93952   1.97340   1.99501
 Alpha virt. eigenvalues --    2.00596   2.02996   2.06159   2.08096   2.15315
 Alpha virt. eigenvalues --    2.20887   2.21572   2.26759   2.31107   2.32239
 Alpha virt. eigenvalues --    2.35470   2.41913   2.42994   2.47845   2.51853
 Alpha virt. eigenvalues --    2.55813   2.60961   2.63371   2.67918   2.71824
 Alpha virt. eigenvalues --    2.79046   2.84263   2.85297   2.86389   2.92401
 Alpha virt. eigenvalues --    2.92900   2.95249   2.97796   2.99268   3.02189
 Alpha virt. eigenvalues --    3.02849   3.08189   3.10745   3.11600   3.18210
 Alpha virt. eigenvalues --    3.18407   3.21510   3.23483   3.25023   3.28896
 Alpha virt. eigenvalues --    3.29208   3.31919   3.35281   3.39717   3.42708
 Alpha virt. eigenvalues --    3.43218   3.44860   3.47904   3.49215   3.51614
 Alpha virt. eigenvalues --    3.53954   3.55016   3.61767   3.62880   3.67234
 Alpha virt. eigenvalues --    3.69505   3.70080   3.71769   3.74863   3.75908
 Alpha virt. eigenvalues --    3.77917   3.79707   3.82130   3.82819   3.85268
 Alpha virt. eigenvalues --    3.86709   3.88506   3.89237   3.93242   3.94973
 Alpha virt. eigenvalues --    3.97241   4.01932   4.03566   4.04900   4.08219
 Alpha virt. eigenvalues --    4.11084   4.12663   4.15079   4.15846   4.19097
 Alpha virt. eigenvalues --    4.21281   4.29316   4.30577   4.32845   4.35255
 Alpha virt. eigenvalues --    4.40548   4.44765   4.47458   4.57332   4.63600
 Alpha virt. eigenvalues --    4.67148   4.71479   4.74491   4.75422   4.79083
 Alpha virt. eigenvalues --    4.83037   4.85148   4.87741   4.90569   4.91710
 Alpha virt. eigenvalues --    4.96239   4.98915   5.04086   5.07234   5.11765
 Alpha virt. eigenvalues --    5.13675   5.16503   5.19566   5.25511   5.30831
 Alpha virt. eigenvalues --    5.36428   5.42374   5.58773   5.63365   5.70271
 Alpha virt. eigenvalues --    5.73519   5.77869   5.84039   5.97559   6.02931
 Alpha virt. eigenvalues --    6.14913   6.18459   6.23012   6.29198   6.33051
 Alpha virt. eigenvalues --    6.38369   6.41106   6.43944   6.47026   6.55458
 Alpha virt. eigenvalues --    6.57230   6.60943   6.62603   6.63228   6.74136
 Alpha virt. eigenvalues --    6.76337   6.84520   6.87062   6.88549   6.94939
 Alpha virt. eigenvalues --    7.14352   7.21190   7.25746   7.30353   7.50365
 Alpha virt. eigenvalues --    7.65693   9.95395  11.41901  11.61435  11.76530
 Alpha virt. eigenvalues --   12.44683
  Beta  occ. eigenvalues --  -19.70449 -19.68505 -19.62736 -10.59928 -10.55720
  Beta  occ. eigenvalues --   -1.30466  -1.14939  -0.96182  -0.83831  -0.70960
  Beta  occ. eigenvalues --   -0.63429  -0.58813  -0.55620  -0.53895  -0.52825
  Beta  occ. eigenvalues --   -0.51065  -0.45187  -0.40483  -0.37702  -0.36316
  Beta  occ. eigenvalues --   -0.34505
  Beta virt. eigenvalues --   -0.07841   0.04785   0.06343   0.10381   0.10833
  Beta virt. eigenvalues --    0.14087   0.15952   0.17637   0.20236   0.21915
  Beta virt. eigenvalues --    0.24764   0.28338   0.31924   0.37060   0.37611
  Beta virt. eigenvalues --    0.38915   0.41759   0.43187   0.45054   0.46070
  Beta virt. eigenvalues --    0.47597   0.48489   0.49899   0.51342   0.54289
  Beta virt. eigenvalues --    0.56935   0.57505   0.58397   0.60305   0.61194
  Beta virt. eigenvalues --    0.66560   0.69967   0.70741   0.72274   0.73216
  Beta virt. eigenvalues --    0.76736   0.78179   0.81982   0.82236   0.86326
  Beta virt. eigenvalues --    0.87731   0.90930   0.94166   0.99052   1.00635
  Beta virt. eigenvalues --    1.03703   1.07329   1.08855   1.11196   1.12060
  Beta virt. eigenvalues --    1.14479   1.16101   1.18209   1.21942   1.22902
  Beta virt. eigenvalues --    1.25197   1.25613   1.29758   1.32180   1.33885
  Beta virt. eigenvalues --    1.35130   1.36772   1.41726   1.43083   1.49557
  Beta virt. eigenvalues --    1.50696   1.53543   1.55593   1.60554   1.66519
  Beta virt. eigenvalues --    1.70693   1.78541   1.87972   1.94965   1.97559
  Beta virt. eigenvalues --    1.99987   2.00960   2.03262   2.06935   2.08285
  Beta virt. eigenvalues --    2.15864   2.21155   2.21705   2.27138   2.31497
  Beta virt. eigenvalues --    2.33258   2.36061   2.42392   2.43719   2.47415
  Beta virt. eigenvalues --    2.52579   2.56961   2.61644   2.64572   2.68362
  Beta virt. eigenvalues --    2.72869   2.79658   2.84634   2.86777   2.87323
  Beta virt. eigenvalues --    2.93178   2.94654   2.95700   2.99297   3.00196
  Beta virt. eigenvalues --    3.03150   3.03962   3.09083   3.11826   3.12621
  Beta virt. eigenvalues --    3.18873   3.19339   3.22331   3.24959   3.25421
  Beta virt. eigenvalues --    3.29235   3.29577   3.31967   3.35833   3.39925
  Beta virt. eigenvalues --    3.43107   3.43772   3.45392   3.48774   3.49702
  Beta virt. eigenvalues --    3.51686   3.54191   3.55312   3.62098   3.63216
  Beta virt. eigenvalues --    3.67583   3.69901   3.70513   3.72234   3.75159
  Beta virt. eigenvalues --    3.76432   3.78127   3.80131   3.82335   3.83323
  Beta virt. eigenvalues --    3.85347   3.87030   3.89116   3.89465   3.93748
  Beta virt. eigenvalues --    3.95210   3.97385   4.02166   4.03806   4.04883
  Beta virt. eigenvalues --    4.08447   4.11440   4.13312   4.15312   4.16134
  Beta virt. eigenvalues --    4.19619   4.21657   4.29730   4.31278   4.33253
  Beta virt. eigenvalues --    4.35877   4.41016   4.45549   4.48716   4.57523
  Beta virt. eigenvalues --    4.63921   4.67823   4.71911   4.75500   4.75844
  Beta virt. eigenvalues --    4.79876   4.83724   4.85796   4.88408   4.91440
  Beta virt. eigenvalues --    4.92257   4.97369   4.99662   5.05958   5.08752
  Beta virt. eigenvalues --    5.12133   5.13824   5.16957   5.20503   5.26525
  Beta virt. eigenvalues --    5.32434   5.37299   5.44877   5.58883   5.63916
  Beta virt. eigenvalues --    5.70745   5.74682   5.81412   5.84438   5.97691
  Beta virt. eigenvalues --    6.03529   6.15175   6.19828   6.23615   6.29922
  Beta virt. eigenvalues --    6.33176   6.38386   6.42078   6.44646   6.48222
  Beta virt. eigenvalues --    6.56459   6.57670   6.61823   6.64304   6.65400
  Beta virt. eigenvalues --    6.74225   6.77753   6.85067   6.87597   6.89156
  Beta virt. eigenvalues --    6.95021   7.14366   7.21063   7.26777   7.30386
  Beta virt. eigenvalues --    7.50681   7.65941   9.96142  11.42205  11.61987
  Beta virt. eigenvalues --   11.77008  12.45315
          Condensed to atoms (all electrons):
               1          2          3          4          5          6
     1  O    7.848209  -0.000199   0.000182   0.342861  -0.050269  -0.056611
     2  O   -0.000199   7.882093   0.031575  -0.002736   0.000259   0.000127
     3  O    0.000182   0.031575   8.110020  -0.001550  -0.088781  -0.000261
     4  C    0.342861  -0.002736  -0.001550   4.687810   0.327582   0.387990
     5  C   -0.050269   0.000259  -0.088781   0.327582   5.345824  -0.057907
     6  H   -0.056611   0.000127  -0.000261   0.387990  -0.057907   0.735147
     7  H   -0.037067   0.015225  -0.001072   0.374181  -0.036833  -0.083745
     8  H    0.004113  -0.030077   0.184020  -0.011530   0.238867   0.005846
     9  H   -0.005612   0.000708   0.002428  -0.028715   0.364380  -0.008495
    10  H    0.005183   0.000044  -0.003600  -0.039750   0.369959   0.002310
    11  H    0.329110  -0.000111   0.000010  -0.048191  -0.010963  -0.004111
    12  H   -0.000091   0.309220  -0.041641  -0.000598  -0.003713  -0.000482
               7          8          9         10         11         12
     1  O   -0.037067   0.004113  -0.005612   0.005183   0.329110  -0.000091
     2  O    0.015225  -0.030077   0.000708   0.000044  -0.000111   0.309220
     3  O   -0.001072   0.184020   0.002428  -0.003600   0.000010  -0.041641
     4  C    0.374181  -0.011530  -0.028715  -0.039750  -0.048191  -0.000598
     5  C   -0.036833   0.238867   0.364380   0.369959  -0.010963  -0.003713
     6  H   -0.083745   0.005846  -0.008495   0.002310  -0.004111  -0.000482
     7  H    0.677952  -0.013409   0.009446  -0.002965   0.009404   0.002607
     8  H   -0.013409   0.407348  -0.016570  -0.004207  -0.000631   0.002073
     9  H    0.009446  -0.016570   0.598991  -0.033106   0.008472  -0.000007
    10  H   -0.002965  -0.004207  -0.033106   0.570418   0.000234   0.000168
    11  H    0.009404  -0.000631   0.008472   0.000234   0.467286   0.000023
    12  H    0.002607   0.002073  -0.000007   0.000168   0.000023   0.462900
          Atomic-Atomic Spin Densities.
               1          2          3          4          5          6
     1  O   -0.002096   0.000111  -0.000211   0.002405   0.001611  -0.000580
     2  O    0.000111   0.139910  -0.069128  -0.001783   0.019597   0.000644
     3  O   -0.000211  -0.069128   0.593184   0.005499  -0.106023  -0.001170
     4  C    0.002405  -0.001783   0.005499  -0.027279  -0.022377   0.003540
     5  C    0.001611   0.019597  -0.106023  -0.022377   0.651411  -0.017452
     6  H   -0.000580   0.000644  -0.001170   0.003540  -0.017452   0.068061
     7  H   -0.000182  -0.005414   0.002820   0.009007  -0.007764  -0.009407
     8  H   -0.000021   0.011584  -0.028838  -0.000972   0.050462   0.000890
     9  H   -0.000296  -0.000573   0.003788   0.004222  -0.007108  -0.003638
    10  H   -0.000170  -0.000470   0.002541   0.003068  -0.005432  -0.001371
    11  H   -0.000089  -0.000006   0.000038   0.000914  -0.000223  -0.000729
    12  H    0.000007   0.000615  -0.000356  -0.000061  -0.000148  -0.000004
               7          8          9         10         11         12
     1  O   -0.000182  -0.000021  -0.000296  -0.000170  -0.000089   0.000007
     2  O   -0.005414   0.011584  -0.000573  -0.000470  -0.000006   0.000615
     3  O    0.002820  -0.028838   0.003788   0.002541   0.000038  -0.000356
     4  C    0.009007  -0.000972   0.004222   0.003068   0.000914  -0.000061
     5  C   -0.007764   0.050462  -0.007108  -0.005432  -0.000223  -0.000148
     6  H   -0.009407   0.000890  -0.003638  -0.001371  -0.000729  -0.000004
     7  H    0.021333   0.000609   0.000445   0.000242   0.000243  -0.000292
     8  H    0.000609  -0.063392  -0.001385   0.000109  -0.000206   0.000035
     9  H    0.000445  -0.001385  -0.016862   0.003984   0.000205   0.000024
    10  H    0.000242   0.000109   0.003984  -0.029740   0.000011  -0.000022
    11  H    0.000243  -0.000206   0.000205   0.000011  -0.000154   0.000001
    12  H   -0.000292   0.000035   0.000024  -0.000022   0.000001  -0.005105
 Mulliken charges and spin densities:
               1          2
     1  O   -0.379809   0.000489
     2  O   -0.206128   0.095085
     3  O   -0.191330   0.402144
     4  C    0.012647  -0.023818
     5  C   -0.398405   0.556554
     6  H    0.080191   0.038783
     7  H    0.086273   0.011639
     8  H    0.234158  -0.031126
     9  H    0.108079  -0.017194
    10  H    0.135311  -0.027253
    11  H    0.249470   0.000005
    12  H    0.269543  -0.005308
 Sum of Mulliken charges =  -0.00000   1.00000
 Mulliken charges and spin densities with hydrogens summed into heavy atoms:
               1          2
     1  O   -0.130339   0.000494
     2  O    0.063416   0.089777
     3  O    0.042828   0.371018
     4  C    0.179111   0.026604
     5  C   -0.155015   0.512107
 Electronic spatial extent (au):  <R**2>=            594.3283
 Charge=             -0.0000 electrons
 Dipole moment (field-independent basis, Debye):
    X=             -0.7591    Y=              1.6957    Z=              1.7369  Tot=              2.5433
 Quadrupole moment (field-independent basis, Debye-Ang):
   XX=            -34.1536   YY=            -33.0384   ZZ=            -27.4298
   XY=             -4.6376   XZ=              4.9614   YZ=             -2.5683
 Traceless Quadrupole moment (field-independent basis, Debye-Ang):
   XX=             -2.6130   YY=             -1.4978   ZZ=              4.1108
   XY=             -4.6376   XZ=              4.9614   YZ=             -2.5683
 Octapole moment (field-independent basis, Debye-Ang**2):
  XXX=              3.8464  YYY=             -2.5384  ZZZ=             -1.4238  XYY=              4.2365
  XXY=              3.8708  XXZ=              2.5574  XZZ=              1.5889  YZZ=             -2.2989
  YYZ=              1.6165  XYZ=             -0.0295
 Hexadecapole moment (field-independent basis, Debye-Ang**3):
 XXXX=           -489.2304 YYYY=           -151.4347 ZZZZ=            -70.9062 XXXY=            -20.4217
 XXXZ=             29.9246 YYYX=             -1.1463 YYYZ=             -3.0642 ZZZX=             15.4551
 ZZZY=             -1.8386 XXYY=           -114.8389 XXZZ=            -74.4269 YYZZ=            -34.9934
 XXYZ=             -8.7022 YYXZ=              3.1378 ZZXY=             -4.7208
 N-N= 1.874300983780D+02 E-N=-1.093933602804D+03  KE= 3.042701657620D+02
                          Isotropic Fermi Contact Couplings
        Atom                 a.u.       MegaHertz       Gauss      10(-4) cm-1
     1  O(17)             -0.00046       0.27644       0.09864       0.09221
     2  O(17)              0.00700      -4.24408      -1.51439      -1.41567
     3  O(17)              0.10438     -63.27176     -22.57694     -21.10519
     4  C(13)             -0.00856      -9.61879      -3.43222      -3.20848
     5  C(13)              0.20878     234.70574      83.74884      78.28941
     6  H(1)               0.01815      81.11797      28.94491      27.05804
     7  H(1)               0.00911      40.73151      14.53402      13.58657
     8  H(1)              -0.03504    -156.61804     -55.88521     -52.24216
     9  H(1)               0.00054       2.41616       0.86215       0.80594
    10  H(1)              -0.00685     -30.60960     -10.92227     -10.21026
    11  H(1)              -0.00020      -0.90209      -0.32189      -0.30090
    12  H(1)              -0.00239     -10.66258      -3.80468      -3.55666
 --------------------------------------------------------
       Center         ----  Spin Dipole Couplings  ----
                      3XX-RR        3YY-RR        3ZZ-RR
 --------------------------------------------------------
     1   Atom       -0.001204     -0.001692      0.002896
     2   Atom        0.533085     -0.277285     -0.255800
     3   Atom        1.991248     -1.002584     -0.988664
     4   Atom        0.030131     -0.015119     -0.015013
     5   Atom        0.355386     -0.203624     -0.151762
     6   Atom        0.001405     -0.003247      0.001842
     7   Atom       -0.003520      0.006099     -0.002579
     8   Atom        0.181303     -0.087408     -0.093895
     9   Atom       -0.001360     -0.012768      0.014128
    10   Atom       -0.006535     -0.005861      0.012396
    11   Atom        0.004839     -0.002494     -0.002345
    12   Atom       -0.010937     -0.012422      0.023359
 --------------------------------------------------------
                        XY            XZ            YZ
 --------------------------------------------------------
     1   Atom        0.007487     -0.001042     -0.000068
     2   Atom       -0.193385     -0.054147      0.017680
     3   Atom       -0.313322     -0.377473      0.051097
     4   Atom        0.003555     -0.016437     -0.002721
     5   Atom       -0.257138     -0.314300      0.125625
     6   Atom        0.002129     -0.008510      0.000357
     7   Atom        0.001307     -0.002107     -0.010077
     8   Atom       -0.092832     -0.013401      0.007647
     9   Atom       -0.025852      0.013452     -0.026490
    10   Atom        0.002903      0.006944      0.038847
    11   Atom        0.004337      0.004644      0.003213
    12   Atom       -0.005730      0.005248     -0.010051
 --------------------------------------------------------


 ---------------------------------------------------------------------------------
              Anisotropic Spin Dipole Couplings in Principal Axis System
 ---------------------------------------------------------------------------------

       Atom             a.u.   MegaHertz   Gauss  10(-4) cm-1        Axes

              Baa    -0.0090     0.650     0.232     0.217 -0.6965  0.7153 -0.0570
     1 O(17)  Bbb     0.0027    -0.198    -0.071    -0.066  0.1291  0.2031  0.9706
              Bcc     0.0062    -0.451    -0.161    -0.150  0.7058  0.6687 -0.2338
 
              Baa    -0.3215    23.265     8.301     7.760  0.2148  0.9730 -0.0848
     2 O(17)  Bbb    -0.2592    18.755     6.692     6.256  0.0845  0.0680  0.9941
              Bcc     0.5807   -42.020   -14.994   -14.016  0.9730 -0.2207 -0.0676
 
              Baa    -1.0474    75.789    27.044    25.281  0.0171 -0.6973  0.7166
     3 O(17)  Bbb    -1.0237    74.071    26.430    24.708  0.1597  0.7094  0.6865
              Bcc     2.0711  -149.861   -53.474   -49.988  0.9870 -0.1027 -0.1235
 
              Baa    -0.0208    -2.788    -0.995    -0.930  0.2790  0.2681  0.9221
     4 C(13)  Bbb    -0.0151    -2.020    -0.721    -0.674 -0.1595  0.9598 -0.2309
              Bcc     0.0358     4.808     1.716     1.604  0.9470  0.0827 -0.3106
 
              Baa    -0.3060   -41.063   -14.652   -13.697  0.0449  0.8175 -0.5742
     5 C(13)  Bbb    -0.3007   -40.352   -14.399   -13.460  0.5243  0.4700  0.7101
              Bcc     0.6067    81.415    29.051    27.157  0.8503 -0.3330 -0.4075
 
              Baa    -0.0076    -4.067    -1.451    -1.357  0.6800 -0.3819  0.6259
     6 H(1)   Bbb    -0.0026    -1.402    -0.500    -0.468  0.2122  0.9196  0.3306
              Bcc     0.0102     5.469     1.951     1.824 -0.7018 -0.0920  0.7064
 
              Baa    -0.0094    -5.017    -1.790    -1.674  0.1811  0.5252  0.8315
     7 H(1)   Bbb    -0.0036    -1.939    -0.692    -0.647  0.9742 -0.2119 -0.0783
              Bcc     0.0130     6.956     2.482     2.320  0.1350  0.8242 -0.5500
 
              Baa    -0.1169   -62.347   -22.247   -20.797  0.2880  0.9463 -0.1471
     8 H(1)   Bbb    -0.0941   -50.233   -17.924   -16.756  0.0905  0.1260  0.9879
              Bcc     0.2110   112.579    40.171    37.552  0.9533 -0.2978 -0.0494
 
              Baa    -0.0374   -19.959    -7.122    -6.658  0.4801  0.8248  0.2987
     9 H(1)   Bbb    -0.0074    -3.972    -1.417    -1.325  0.7219 -0.1780 -0.6687
              Bcc     0.0449    23.931     8.539     7.983  0.4984 -0.5366  0.6809
 
              Baa    -0.0368   -19.623    -7.002    -6.546  0.0687  0.7781 -0.6244
    10 H(1)   Bbb    -0.0074    -3.964    -1.415    -1.322  0.9876 -0.1418 -0.0681
              Bcc     0.0442    23.587     8.417     7.868  0.1415  0.6119  0.7781
 
              Baa    -0.0056    -3.008    -1.073    -1.003 -0.0341 -0.6909  0.7222
    11 H(1)   Bbb    -0.0038    -2.053    -0.732    -0.685 -0.5892  0.5976  0.5438
              Bcc     0.0095     5.061     1.806     1.688  0.8073  0.4069  0.4274
 
              Baa    -0.0180    -9.592    -3.423    -3.200  0.5682  0.8132  0.1256
    12 H(1)   Bbb    -0.0091    -4.878    -1.741    -1.627  0.8049 -0.5176 -0.2900
              Bcc     0.0271    14.470     5.163     4.827  0.1708 -0.2659  0.9487
 

 ---------------------------------------------------------------------------------

 No NMR shielding tensors so no spin-rotation constants.
 Leave Link  601 at Thu May 30 06:30:05 2019, MaxMem=   671088640 cpu:               9.5 elap:               0.5
 (Enter /shared/centos7/gaussian/g16/l701.exe)
 ... and contract with generalized density number  0.
 Compute integral first derivatives.
 Leave Link  701 at Thu May 30 06:30:05 2019, MaxMem=   671088640 cpu:               4.7 elap:               0.3
 (Enter /shared/centos7/gaussian/g16/l702.exe)
 L702 exits ... SP integral derivatives will be done elsewhere.
 Leave Link  702 at Thu May 30 06:30:06 2019, MaxMem=   671088640 cpu:               0.3 elap:               0.0
 (Enter /shared/centos7/gaussian/g16/l703.exe)
 Integral derivatives from FoFJK, PRISM(SPDF).
 Compute integral first derivatives, UseDBF=F ICtDFT=           0.
 Calling FoFJK, ICntrl=      2127 FMM=F ISym2X=0 I1Cent= 0 IOpClX= 1 NMat=1 NMatS=1 NMatT=0.
 FoFJK:  IHMeth= 1 ICntrl=    2127 DoSepK=F KAlg= 0 I1Cent=           0 FoldK=F
 IRaf=         0 NMat=       1 IRICut=       1 DoRegI=T DoRafI=F ISym2E= 0 IDoP0=0 IntGTp=1.
 FoFCou: FMM=F IPFlag=           0 FMFlag=      100000 FMFlg1=         800
         NFxFlg=           0 DoJE=F BraDBF=F KetDBF=F FulRan=T
         wScrn=  0.000000 ICntrl=      2127 IOpCl=  1 I1Cent=           0 NGrid=           0
         NMat0=    1 NMatS0=      1 NMatT0=    0 NMatD0=    1 NMtDS0=    0 NMtDT0=    0
 Symmetry not used in FoFCou.
 Leave Link  703 at Thu May 30 06:30:10 2019, MaxMem=   671088640 cpu:              95.9 elap:               4.8
 (Enter /shared/centos7/gaussian/g16/l716.exe)
 Dipole        =-2.98647572D-01 6.67143333D-01 6.83343691D-01
 ***** Axes restored to original set *****
 -------------------------------------------------------------------
 Center     Atomic                   Forces (Hartrees/Bohr)
 Number     Number              X              Y              Z
 -------------------------------------------------------------------
      1        8          -0.015566290   -0.013653813   -0.024356844
      2        8           0.024729119    0.015952554    0.054578386
      3        8          -0.011185266    0.000048834   -0.049745699
      4        6           0.005388105    0.012065889   -0.003619925
      5        6          -0.014696819    0.004285394    0.004070466
      6        1           0.005016428   -0.004295197   -0.003364305
      7        1          -0.008435066   -0.002712116   -0.004634733
      8        1          -0.017657268    0.011530828    0.002404940
      9        1           0.009913783    0.004245179    0.004711316
     10        1           0.004002571   -0.014766115    0.000296956
     11        1           0.015904624    0.007517574    0.024625570
     12        1           0.002586080   -0.020219011   -0.004966127
 -------------------------------------------------------------------
 Cartesian Forces:  Max     0.054578386 RMS     0.016864938
 Leave Link  716 at Thu May 30 06:30:10 2019, MaxMem=   671088640 cpu:               0.5 elap:               0.0
 (Enter /shared/centos7/gaussian/g16/l103.exe)

 GradGradGradGradGradGradGradGradGradGradGradGradGradGradGradGradGradGrad
 Berny optimization.
 FormGI is forming the generalized inverse of G from B-inverse, IUseBI=4.
 Internal  Forces:  Max     0.056548191 RMS     0.011703178
 Search for a local minimum.
 Step number   1 out of a maximum of  100
 All quantities printed in internal units (Hartrees-Bohrs-Radians)
 RMS Force = .11538D-01 SwitMx=.10000D-02 MixMth= 1
 Mixed Optimization -- RFO/linear search
 Second derivative matrix not updated -- first step.
 ITU=  0
     Eigenvalues ---    0.00230   0.00230   0.00467   0.01675   0.02406
     Eigenvalues ---    0.04728   0.05011   0.05209   0.05919   0.11254
     Eigenvalues ---    0.11879   0.13587   0.14116   0.16000   0.16000
     Eigenvalues ---    0.16000   0.16000   0.22019   0.30118   0.32253
     Eigenvalues ---    0.32529   0.32552   0.32557   0.45417   0.48968
     Eigenvalues ---    0.49449   0.629371000.000001000.000001000.00000
     Eigenvalues --- 1000.000001000.000001000.000001000.000001000.00000
     Eigenvalues --- 1000.000001000.000001000.000001000.000001000.00000
     Eigenvalues --- 1000.000001000.000001000.000001000.00000
 RFO step:  Lambda=-1.20806503D-02 EMin= 2.30000000D-03
 Linear search not attempted -- first point.
 Iteration  1 RMS(Cart)=  0.05944673 RMS(Int)=  0.00357419
 Iteration  2 RMS(Cart)=  0.00377565 RMS(Int)=  0.00026495
 Iteration  3 RMS(Cart)=  0.00001123 RMS(Int)=  0.00026484
 Iteration  4 RMS(Cart)=  0.00000000 RMS(Int)=  0.00026484
 Iteration  1 RMS(Cart)=  0.00000000 RMS(Int)=  0.00000000
 ITry= 1 IFail=0 DXMaxC= 2.23D-01 DCOld= 1.00D+10 DXMaxT= 3.00D-01 DXLimC= 3.00D+00 Rises=F
 Variable       Old X    -DE/DX   Delta X   Delta X   Delta X     New X
                                 (Linear)    (Quad)   (Total)
    R1        2.64795   0.00577   0.00000   0.01237   0.01237   2.66031
    R2        1.87622  -0.03004   0.00000  -0.05987  -0.05987   1.81635
    R3        2.48689   0.05655   0.00000   0.08816   0.08816   2.57504
    R4        1.87125  -0.02032   0.00000  -0.04012  -0.04012   1.83113
    R5        2.19771   0.01446   0.00000   0.00000   0.00000   2.19771
    R6        2.87728  -0.01118   0.00000  -0.03570  -0.03570   2.84158
    R7        2.10383  -0.00737   0.00000  -0.02204  -0.02204   2.08180
    R8        2.09845  -0.00998   0.00000  -0.02957  -0.02957   2.06889
    R9        2.58638  -0.00449   0.00000   0.00000  -0.00000   2.58638
   R10        2.09836  -0.01145   0.00000  -0.03390  -0.03390   2.06446
   R11        2.09887  -0.01456   0.00000  -0.04315  -0.04315   2.05572
    A1        1.86463   0.00616   0.00000   0.03577   0.03577   1.90040
    A2        1.80835   0.00927   0.00000   0.05385   0.05385   1.86220
    A3        1.81996   0.00890   0.00000   0.05175   0.05175   1.87171
    A4        1.98856   0.00191   0.00000   0.00823   0.00812   1.99668
    A5        1.92595   0.00061   0.00000   0.01392   0.01381   1.93977
    A6        1.87364  -0.00174   0.00000  -0.01805  -0.01804   1.85560
    A7        1.89294  -0.00060   0.00000   0.00304   0.00291   1.89585
    A8        1.92435  -0.00074   0.00000  -0.00969  -0.00970   1.91465
    A9        1.85382   0.00048   0.00000   0.00201   0.00207   1.85588
   A10        1.90859  -0.00320   0.00000  -0.02864  -0.02846   1.88013
   A11        1.96828   0.00193   0.00000   0.01632   0.01552   1.98380
   A12        1.94723   0.00406   0.00000   0.03491   0.03432   1.98155
   A13        1.86856  -0.00095   0.00000  -0.02010  -0.02002   1.84854
   A14        1.84480  -0.00164   0.00000  -0.01947  -0.01906   1.82575
   A15        1.92052  -0.00070   0.00000   0.01161   0.01058   1.93109
   A16        2.53345   0.01841   0.00000   0.00000   0.00000   2.53345
    D1       -0.56966  -0.00146   0.00000  -0.04112  -0.04118  -0.61085
    D2        1.56454  -0.00042   0.00000  -0.02065  -0.02055   1.54400
    D3       -2.70564  -0.00051   0.00000  -0.02109  -0.02114  -2.72678
    D4       -1.73106  -0.00296   0.00000  -0.08186  -0.08186  -1.81292
    D5        1.50960  -0.00138   0.00000  -0.09597  -0.09597   1.41364
    D6       -1.38436   0.00170   0.00000   0.05018   0.05011  -1.33425
    D7        0.69247  -0.00042   0.00000   0.01596   0.01568   0.70815
    D8        2.86435   0.00330   0.00000   0.07114   0.07153   2.93588
    D9        2.74657   0.00005   0.00000   0.02419   0.02409   2.77066
   D10       -1.45978  -0.00208   0.00000  -0.01003  -0.01034  -1.47012
   D11        0.71210   0.00164   0.00000   0.04515   0.04551   0.75761
   D12        0.72352   0.00023   0.00000   0.02537   0.02529   0.74881
   D13        2.80035  -0.00190   0.00000  -0.00885  -0.00914   2.79122
   D14       -1.31095   0.00182   0.00000   0.04633   0.04671  -1.26424
   D15       -1.58862  -0.00086   0.00000  -0.01482  -0.01476  -1.60338
   D16        2.55693  -0.00074   0.00000  -0.00548  -0.00567   2.55126
   D17        0.50976   0.00131   0.00000   0.00027   0.00040   0.51017
         Item               Value     Threshold  Converged?
 Maximum Force            0.056548     0.002500     NO 
 RMS     Force            0.011538     0.001667     NO 
 Maximum Displacement     0.222956     0.010000     NO 
 RMS     Displacement     0.059388     0.006667     NO 
 Predicted change in Energy=-6.422008D-03
 Lowest energy point so far.  Saving SCF results.
 GradGradGradGradGradGradGradGradGradGradGradGradGradGradGradGradGradGrad

 Leave Link  103 at Thu May 30 06:30:10 2019, MaxMem=   671088640 cpu:               0.5 elap:               0.1
 (Enter /shared/centos7/gaussian/g16/l202.exe)
                          Input orientation:                          
 ---------------------------------------------------------------------
 Center     Atomic      Atomic             Coordinates (Angstroms)
 Number     Number       Type             X           Y           Z
 ---------------------------------------------------------------------
      1          8           0       -5.497326    0.967545    7.608968
      2          8           0       -2.089763    2.242539    6.466854
      3          8           0       -2.709433    2.343668    5.257469
      4          6           0       -5.173991    2.304669    7.309988
      5          6           0       -5.040300    2.597972    5.841241
      6          1           0       -5.913263    2.998199    7.741384
      7          1           0       -4.225389    2.512209    7.815641
      8          1           0       -3.834505    2.101699    5.425328
      9          1           0       -5.795758    2.104891    5.225098
     10          1           0       -4.993094    3.660553    5.613019
     11          1           0       -6.081325    0.628306    6.925077
     12          1           0       -1.933272    3.147457    6.776011
 ---------------------------------------------------------------------
                    Distance matrix (angstroms):
                    1          2          3          4          5
     1  O    0.000000
     2  O    3.813334   0.000000
     3  O    3.898154   1.362655   0.000000
     4  C    1.407776   3.197999   3.207554   0.000000
     5  C    2.447861   3.037003   2.416278   1.503701   0.000000
     6  H    2.077040   4.100561   4.106431   1.101640   2.129035
     7  H    2.011597   2.540246   2.978384   1.094808   2.137683
     8  H    2.969775   2.036845   1.162976   2.321070   1.368654
     9  H    2.658092   3.910921   3.095717   2.184781   1.092465
    10  H    3.389742   3.342025   2.660021   2.179644   1.087838
    11  H    0.961169   4.329929   4.134373   1.944634   2.477502
    12  H    4.260084   0.968992   1.885331   3.390824   3.290798
                    6          7          8          9         10
     6  H    0.000000
     7  H    1.758015   0.000000
     8  H    3.238683   2.456605   0.000000
     9  H    2.672733   3.056612   1.971450   0.000000
    10  H    2.411506   2.599924   1.951303   1.792997   0.000000
    11  H    2.512170   2.790465   3.077066   2.269753   3.478543
    12  H    4.098116   2.595799   2.555904   4.290813   3.313356
                   11         12
    11  H    0.000000
    12  H    4.855377   0.000000
 Stoichiometry    C2H7O3(2)
 Framework group  C1[X(C2H7O3)]
 Deg. of freedom    30
 Full point group                 C1      NOp   1
 RotChk:  IX=0 Diff= 3.84D-02
 Largest Abelian subgroup         C1      NOp   1
 Largest concise Abelian subgroup C1      NOp   1
                         Standard orientation:                         
 ---------------------------------------------------------------------
 Center     Atomic      Atomic             Coordinates (Angstroms)
 Number     Number       Type             X           Y           Z
 ---------------------------------------------------------------------
      1          8           0       -1.935865   -0.748828   -0.453641
      2          8           0        1.835247   -0.831103    0.106238
      3          8           0        1.779139    0.430976   -0.404483
      4          6           0       -1.237318   -0.071249    0.563587
      5          6           0       -0.476601    1.138320    0.095218
      6          1           0       -1.915578    0.232795    1.376686
      7          1           0       -0.543389   -0.798580    0.997241
      8          1           0        0.655382    0.699651   -0.536760
      9          1           0       -1.017006    1.738382   -0.640559
     10          1           0       -0.112503    1.763814    0.907364
     11          1           0       -2.262874   -0.105292   -1.088284
     12          1           0        2.051315   -0.741548    1.046578
 ---------------------------------------------------------------------
 Rotational constants (GHZ):           8.0126867           2.3286498           2.0478285
 Leave Link  202 at Thu May 30 06:30:10 2019, MaxMem=   671088640 cpu:               0.1 elap:               0.0
 (Enter /shared/centos7/gaussian/g16/l301.exe)
 Standard basis: CC-pVTZ (5D, 7F)
 Ernie: Thresh=  0.10000D-02 Tol=  0.10000D-05 Strict=F.
 Ernie:  15 primitive shells out of 186 were deleted.
 There are   280 symmetry adapted cartesian basis functions of A   symmetry.
 There are   248 symmetry adapted basis functions of A   symmetry.
   248 basis functions,   379 primitive gaussians,   280 cartesian basis functions
    22 alpha electrons       21 beta electrons
       nuclear repulsion energy       187.0466497080 Hartrees.
 IExCor= 4336 DFT=T Ex+Corr=M062X ExCW=0 ScaHFX=  0.540000
 ScaDFX=  1.000000  1.000000  1.000000  1.000000 ScalE2=  1.000000  1.000000
 IRadAn=      1 IRanWt=     -1 IRanGd=            0 ICorTp=0 IEmpDi=  4
 NAtoms=   12 NActive=   12 NUniq=   12 SFac= 1.00D+00 NAtFMM=   60 NAOKFM=F Big=F
 Integral buffers will be    131072 words long.
 Raffenetti 2 integral format.
 Two-electron integral symmetry is turned on.
 Leave Link  301 at Thu May 30 06:30:11 2019, MaxMem=   671088640 cpu:               1.3 elap:               0.1
 (Enter /shared/centos7/gaussian/g16/l302.exe)
 NPDir=0 NMtPBC=     1 NCelOv=     1 NCel=       1 NClECP=     1 NCelD=      1
         NCelK=      1 NCelE2=     1 NClLst=     1 CellRange=     0.0.
 One-electron integrals computed using PRISM.
 One-electron integral symmetry used in STVInt
 NBasis=   248 RedAO= T EigKep=  8.98D-04  NBF=   248
 NBsUse=   248 1.00D-06 EigRej= -1.00D+00 NBFU=   248
 Precomputing XC quadrature grid using
 IXCGrd= 4 IRadAn=           1 IRanWt=          -1 IRanGd=           0 AccXCQ= 0.00D+00.
 Generated NRdTot=       0 NPtTot=           0 NUsed=           0 NTot=          32
 NSgBfM=   280   280   280   280   280 MxSgAt=    12 MxSgA2=    12.
 Leave Link  302 at Thu May 30 06:30:11 2019, MaxMem=   671088640 cpu:               8.8 elap:               0.5
 (Enter /shared/centos7/gaussian/g16/l303.exe)
 DipDrv:  MaxL=1.
 Leave Link  303 at Thu May 30 06:30:11 2019, MaxMem=   671088640 cpu:               0.5 elap:               0.0
 (Enter /shared/centos7/gaussian/g16/l401.exe)
 Initial guess from the checkpoint file:  "/scratch/harms.n/gauss_scrdir/Gau-44995.chk"
 B after Tr=     0.000000    0.000000   -0.000000
         Rot=    0.999966   -0.000763   -0.003648   -0.007387 Ang=  -0.95 deg.
 Guess basis will be translated and rotated to current coordinates.
 JPrj=2 DoOrth=T DoCkMO=T.
 Initial guess <Sx>= 0.0000 <Sy>= 0.0000 <Sz>= 0.5000 <S**2>= 0.7596 S= 0.5048
 Generating alternative initial guess.
 ExpMin= 1.03D-01 ExpMax= 1.53D+04 ExpMxC= 5.22D+02 IAcc=1 IRadAn=         1 AccDes= 0.00D+00
 Harris functional with IExCor= 1009 and IRadAn=       1 diagonalized for initial guess.
 HarFok:  IExCor= 1009 AccDes= 0.00D+00 IRadAn=         1 IDoV= 1 UseB2=F ITyADJ=14
 ICtDFT=  3500011 ScaDFX=  1.000000  1.000000  1.000000  1.000000
 FoFCou: FMM=F IPFlag=           0 FMFlag=      100000 FMFlg1=           0
         NFxFlg=           0 DoJE=T BraDBF=F KetDBF=T FulRan=T
         wScrn=  0.000000 ICntrl=       500 IOpCl=  0 I1Cent=   200000004 NGrid=           0
         NMat0=    1 NMatS0=      1 NMatT0=    0 NMatD0=    1 NMtDS0=    0 NMtDT0=    0
 Petite list used in FoFCou.
 Harris En= -305.775399296745    
 Leave Link  401 at Thu May 30 06:30:12 2019, MaxMem=   671088640 cpu:              10.6 elap:               0.6
 (Enter /shared/centos7/gaussian/g16/l502.exe)
 Integral symmetry usage will be decided dynamically.
 UHF open shell SCF:
 Using DIIS extrapolation, IDIIS=  1040.
 NGot=   671088640 LenX=   670923676 LenY=   670844835
 Requested convergence on RMS density matrix=1.00D-08 within 900 cycles.
 Requested convergence on MAX density matrix=1.00D-06.
 Requested convergence on             energy=1.00D-06.
 No special actions if energy rises.
 Fock matrices will be formed incrementally for  20 cycles.

 Cycle   1  Pass 1  IDiag  1:
 FoFJK:  IHMeth= 1 ICntrl=       0 DoSepK=F KAlg= 0 I1Cent=           0 FoldK=F
 IRaf= 970000000 NMat=       1 IRICut=       1 DoRegI=T DoRafI=F ISym2E= 0 IDoP0=0 IntGTp=1.
 FoFCou: FMM=F IPFlag=           0 FMFlag=      100000 FMFlg1=           0
         NFxFlg=           0 DoJE=F BraDBF=F KetDBF=F FulRan=T
         wScrn=  0.000000 ICntrl=         0 IOpCl=  1 I1Cent=           0 NGrid=           0
         NMat0=    1 NMatS0=      1 NMatT0=    0 NMatD0=    1 NMtDS0=    0 NMtDT0=    0
 Symmetry not used in FoFCou.
 E= -305.877676562593    
 DIIS: error= 3.95D-03 at cycle   1 NSaved=   1.
 NSaved= 1 IEnMin= 1 EnMin= -305.877676562593     IErMin= 1 ErrMin= 3.95D-03
 ErrMax= 3.95D-03  0.00D+00 EMaxC= 1.00D-01 BMatC= 2.98D-02 BMatP= 2.98D-02
 IDIUse=3 WtCom= 9.61D-01 WtEn= 3.95D-02
 Coeff-Com:  0.100D+01
 Coeff-En:   0.100D+01
 Coeff:      0.100D+01
 Gap=     0.792 Goal=   None    Shift=    0.000
 Gap=     0.816 Goal=   None    Shift=    0.000
 GapD=    0.792 DampG=2.000 DampE=1.000 DampFc=2.0000 IDamp=-1.
 RMSDP=3.52D-04 MaxDP=1.34D-02              OVMax= 2.84D-02

 Cycle   2  Pass 1  IDiag  1:
 RMSU=  3.52D-04    CP:  9.99D-01
 E= -305.886835208836     Delta-E=       -0.009158646243 Rises=F Damp=F
 DIIS: error= 9.67D-04 at cycle   2 NSaved=   2.
 NSaved= 2 IEnMin= 2 EnMin= -305.886835208836     IErMin= 2 ErrMin= 9.67D-04
 ErrMax= 9.67D-04  0.00D+00 EMaxC= 1.00D-01 BMatC= 1.64D-03 BMatP= 2.98D-02
 IDIUse=3 WtCom= 9.90D-01 WtEn= 9.67D-03
 Coeff-Com: -0.582D-01 0.106D+01
 Coeff-En:   0.000D+00 0.100D+01
 Coeff:     -0.576D-01 0.106D+01
 Gap=     0.346 Goal=   None    Shift=    0.000
 Gap=     0.267 Goal=   None    Shift=    0.000
 RMSDP=1.15D-04 MaxDP=3.96D-03 DE=-9.16D-03 OVMax= 1.33D-02

 Cycle   3  Pass 1  IDiag  1:
 RMSU=  8.64D-05    CP:  9.99D-01  1.21D+00
 E= -305.887229223087     Delta-E=       -0.000394014251 Rises=F Damp=F
 DIIS: error= 1.14D-03 at cycle   3 NSaved=   3.
 NSaved= 3 IEnMin= 3 EnMin= -305.887229223087     IErMin= 2 ErrMin= 9.67D-04
 ErrMax= 1.14D-03  0.00D+00 EMaxC= 1.00D-01 BMatC= 1.74D-03 BMatP= 1.64D-03
 IDIUse=3 WtCom= 9.89D-01 WtEn= 1.14D-02
 Coeff-Com: -0.749D-01 0.573D+00 0.502D+00
 Coeff-En:   0.000D+00 0.000D+00 0.100D+01
 Coeff:     -0.741D-01 0.567D+00 0.507D+00
 Gap=     0.345 Goal=   None    Shift=    0.000
 Gap=     0.269 Goal=   None    Shift=    0.000
 RMSDP=5.07D-05 MaxDP=1.69D-03 DE=-3.94D-04 OVMax= 5.74D-03

 Cycle   4  Pass 1  IDiag  1:
 RMSU=  3.81D-05    CP:  9.99D-01  1.27D+00  6.78D-01
 E= -305.887541643539     Delta-E=       -0.000312420452 Rises=F Damp=F
 DIIS: error= 2.50D-04 at cycle   4 NSaved=   4.
 NSaved= 4 IEnMin= 4 EnMin= -305.887541643539     IErMin= 4 ErrMin= 2.50D-04
 ErrMax= 2.50D-04  0.00D+00 EMaxC= 1.00D-01 BMatC= 1.04D-04 BMatP= 1.64D-03
 IDIUse=3 WtCom= 9.97D-01 WtEn= 2.50D-03
 Coeff-Com: -0.102D-01-0.291D-01 0.160D+00 0.879D+00
 Coeff-En:   0.000D+00 0.000D+00 0.000D+00 0.100D+01
 Coeff:     -0.102D-01-0.290D-01 0.160D+00 0.879D+00
 Gap=     0.346 Goal=   None    Shift=    0.000
 Gap=     0.268 Goal=   None    Shift=    0.000
 RMSDP=2.32D-05 MaxDP=6.91D-04 DE=-3.12D-04 OVMax= 3.98D-03

 Cycle   5  Pass 1  IDiag  1:
 RMSU=  1.36D-05    CP:  9.99D-01  1.30D+00  8.25D-01  1.20D+00
 E= -305.887579997800     Delta-E=       -0.000038354260 Rises=F Damp=F
 DIIS: error= 9.39D-05 at cycle   5 NSaved=   5.
 NSaved= 5 IEnMin= 5 EnMin= -305.887579997800     IErMin= 5 ErrMin= 9.39D-05
 ErrMax= 9.39D-05  0.00D+00 EMaxC= 1.00D-01 BMatC= 1.53D-05 BMatP= 1.04D-04
 IDIUse=1 WtCom= 1.00D+00 WtEn= 0.00D+00
 Coeff-Com:  0.517D-02-0.754D-01-0.110D-02 0.303D+00 0.768D+00
 Coeff:      0.517D-02-0.754D-01-0.110D-02 0.303D+00 0.768D+00
 Gap=     0.345 Goal=   None    Shift=    0.000
 Gap=     0.268 Goal=   None    Shift=    0.000
 RMSDP=1.10D-05 MaxDP=3.34D-04 DE=-3.84D-05 OVMax= 2.65D-03

 Cycle   6  Pass 1  IDiag  1:
 RMSU=  7.26D-06    CP:  9.99D-01  1.31D+00  8.79D-01  1.34D+00  1.12D+00
 E= -305.887588510296     Delta-E=       -0.000008512496 Rises=F Damp=F
 DIIS: error= 5.78D-05 at cycle   6 NSaved=   6.
 NSaved= 6 IEnMin= 6 EnMin= -305.887588510296     IErMin= 6 ErrMin= 5.78D-05
 ErrMax= 5.78D-05  0.00D+00 EMaxC= 1.00D-01 BMatC= 4.48D-06 BMatP= 1.53D-05
 IDIUse=1 WtCom= 1.00D+00 WtEn= 0.00D+00
 Coeff-Com:  0.421D-02-0.236D-01-0.415D-01-0.891D-01 0.304D+00 0.846D+00
 Coeff:      0.421D-02-0.236D-01-0.415D-01-0.891D-01 0.304D+00 0.846D+00
[...]
 Alpha virt. eigenvalues --    3.55390   3.58407   3.61326   3.64797   3.67646
 Alpha virt. eigenvalues --    3.70525   3.72766   3.73996   3.77114   3.79035
 Alpha virt. eigenvalues --    3.80941   3.83383   3.85122   3.86010   3.87840
 Alpha virt. eigenvalues --    3.88214   3.91101   3.94734   3.95980   3.98942
 Alpha virt. eigenvalues --    4.00509   4.03251   4.04713   4.08323   4.09857
 Alpha virt. eigenvalues --    4.10634   4.16398   4.19286   4.21739   4.22538
 Alpha virt. eigenvalues --    4.22781   4.28216   4.35527   4.36165   4.40655
 Alpha virt. eigenvalues --    4.43079   4.45536   4.48059   4.64085   4.68181
 Alpha virt. eigenvalues --    4.70435   4.75618   4.76704   4.80563   4.84754
 Alpha virt. eigenvalues --    4.85760   4.88594   4.92211   4.93706   4.99849
 Alpha virt. eigenvalues --    5.01346   5.02222   5.08141   5.11462   5.14421
 Alpha virt. eigenvalues --    5.17545   5.22783   5.25360   5.32309   5.36182
 Alpha virt. eigenvalues --    5.41396   5.45062   5.54857   5.57198   5.73799
 Alpha virt. eigenvalues --    5.75776   5.77054   5.83764   5.94937   5.97042
 Alpha virt. eigenvalues --    6.09510   6.18685   6.19314   6.32648   6.36030
 Alpha virt. eigenvalues --    6.37664   6.46169   6.48133   6.54883   6.57459
 Alpha virt. eigenvalues --    6.62285   6.64432   6.69217   6.69795   6.71515
 Alpha virt. eigenvalues --    6.74404   6.83962   6.86823   6.88570   6.96437
 Alpha virt. eigenvalues --    7.12944   7.13594   7.18920   7.38381   7.44054
 Alpha virt. eigenvalues --    7.58808   9.90497  11.21845  11.79352  12.07692
 Alpha virt. eigenvalues --   12.82458
  Beta  occ. eigenvalues --  -19.69170 -19.67950 -19.62446 -10.59392 -10.55436
  Beta  occ. eigenvalues --   -1.25790  -1.15165  -0.97176  -0.84739  -0.71169
  Beta  occ. eigenvalues --   -0.61219  -0.58776  -0.56017  -0.53659  -0.51414
  Beta  occ. eigenvalues --   -0.49787  -0.45518  -0.41096  -0.38273  -0.36189
  Beta  occ. eigenvalues --   -0.35206
  Beta virt. eigenvalues --   -0.07632   0.05249   0.06547   0.10397   0.10984
  Beta virt. eigenvalues --    0.13424   0.15333   0.16223   0.19420   0.23023
  Beta virt. eigenvalues --    0.23919   0.28040   0.32416   0.35939   0.38330
  Beta virt. eigenvalues --    0.40864   0.43045   0.44705   0.46086   0.47379
  Beta virt. eigenvalues --    0.48712   0.49209   0.50061   0.51577   0.55218
  Beta virt. eigenvalues --    0.56781   0.58610   0.59948   0.60644   0.63373
  Beta virt. eigenvalues --    0.67758   0.69420   0.70776   0.72573   0.74818
  Beta virt. eigenvalues --    0.76137   0.77554   0.81815   0.84876   0.86125
  Beta virt. eigenvalues --    0.92534   0.93471   0.94861   0.98428   1.00684
  Beta virt. eigenvalues --    1.03073   1.07456   1.08827   1.10413   1.12316
  Beta virt. eigenvalues --    1.15201   1.17677   1.20035   1.21594   1.23770
  Beta virt. eigenvalues --    1.24587   1.29618   1.34078   1.35767   1.35908
  Beta virt. eigenvalues --    1.37462   1.38914   1.42458   1.43446   1.50689
  Beta virt. eigenvalues --    1.51468   1.57636   1.58442   1.59463   1.62745
  Beta virt. eigenvalues --    1.72941   1.80863   1.89700   1.92214   1.92729
  Beta virt. eigenvalues --    1.98522   1.99650   2.03127   2.10342   2.11136
  Beta virt. eigenvalues --    2.14756   2.18266   2.21650   2.29678   2.32941
  Beta virt. eigenvalues --    2.36234   2.38017   2.43074   2.45349   2.51339
  Beta virt. eigenvalues --    2.55784   2.57845   2.62881   2.69086   2.70030
  Beta virt. eigenvalues --    2.74822   2.80346   2.84474   2.86680   2.89891
  Beta virt. eigenvalues --    2.93767   2.94758   2.96706   2.97763   3.02536
  Beta virt. eigenvalues --    3.02631   3.08072   3.09193   3.12563   3.17686
  Beta virt. eigenvalues --    3.18969   3.20352   3.23824   3.25923   3.28220
  Beta virt. eigenvalues --    3.28853   3.30759   3.32551   3.37658   3.41412
  Beta virt. eigenvalues --    3.43589   3.45005   3.46574   3.47811   3.49383
  Beta virt. eigenvalues --    3.51967   3.55662   3.58590   3.62091   3.65525
  Beta virt. eigenvalues --    3.67981   3.70995   3.73004   3.74189   3.77920
  Beta virt. eigenvalues --    3.79461   3.81439   3.83838   3.85718   3.86426
  Beta virt. eigenvalues --    3.88169   3.88861   3.91386   3.94955   3.96002
  Beta virt. eigenvalues --    3.99308   4.01091   4.03411   4.05244   4.08592
  Beta virt. eigenvalues --    4.10291   4.11281   4.16673   4.19734   4.22139
  Beta virt. eigenvalues --    4.23065   4.23574   4.28720   4.35712   4.37021
  Beta virt. eigenvalues --    4.41406   4.43918   4.46913   4.49131   4.64558
  Beta virt. eigenvalues --    4.68544   4.71046   4.76749   4.77567   4.81204
  Beta virt. eigenvalues --    4.85643   4.86989   4.89459   4.92900   4.94763
  Beta virt. eigenvalues --    5.00913   5.02508   5.03189   5.09185   5.12255
  Beta virt. eigenvalues --    5.16211   5.18255   5.23303   5.27275   5.33727
  Beta virt. eigenvalues --    5.37141   5.42741   5.48101   5.55400   5.57809
  Beta virt. eigenvalues --    5.74087   5.77322   5.79929   5.84789   5.95235
  Beta virt. eigenvalues --    5.97339   6.10395   6.18816   6.20824   6.33416
  Beta virt. eigenvalues --    6.36606   6.37810   6.46656   6.48481   6.56061
  Beta virt. eigenvalues --    6.59423   6.63493   6.64502   6.69450   6.70887
  Beta virt. eigenvalues --    6.71927   6.74953   6.84181   6.87653   6.89229
  Beta virt. eigenvalues --    6.96507   7.13081   7.13695   7.19740   7.38404
  Beta virt. eigenvalues --    7.44292   7.59124   9.91280  11.21982  11.79459
  Beta virt. eigenvalues --   12.08417  12.83181
          Condensed to atoms (all electrons):
               1          2          3          4          5          6
     1  O    7.855521   0.000070  -0.000102   0.321895  -0.053208  -0.048739
     2  O    0.000070   7.895514   0.055513  -0.019655   0.012379  -0.000477
     3  O   -0.000102   0.055513   8.085275   0.009419  -0.094866  -0.000088
     4  C    0.321895  -0.019655   0.009419   4.759178   0.294003   0.394666
     5  C   -0.053208   0.012379  -0.094866   0.294003   5.395985  -0.060984
     6  H   -0.048739  -0.000477  -0.000088   0.394666  -0.060984   0.696463
     7  H   -0.028533   0.023147  -0.003895   0.393279  -0.044822  -0.065610
     8  H    0.007123  -0.035156   0.197990  -0.010775   0.217067   0.006734
     9  H   -0.002461   0.001588   0.001065  -0.029490   0.375415  -0.006599
    10  H    0.005834   0.002502  -0.004415  -0.045056   0.359546   0.003981
    11  H    0.318026  -0.000025  -0.000022  -0.037636  -0.007251  -0.011316
    12  H   -0.000024   0.304383  -0.030468   0.000581  -0.004140  -0.000163
               7          8          9         10         11         12
     1  O   -0.028533   0.007123  -0.002461   0.005834   0.318026  -0.000024
     2  O    0.023147  -0.035156   0.001588   0.002502  -0.000025   0.304383
     3  O   -0.003895   0.197990   0.001065  -0.004415  -0.000022  -0.030468
     4  C    0.393279  -0.010775  -0.029490  -0.045056  -0.037636   0.000581
     5  C   -0.044822   0.217067   0.375415   0.359546  -0.007251  -0.004140
     6  H   -0.065610   0.006734  -0.006599   0.003981  -0.011316  -0.000163
     7  H    0.590635  -0.011514   0.007642  -0.003568   0.009422  -0.001133
     8  H   -0.011514   0.399956  -0.014113  -0.005706  -0.001163   0.001564
     9  H    0.007642  -0.014113   0.557338  -0.024201   0.005278   0.000107
    10  H   -0.003568  -0.005706  -0.024201   0.570157  -0.000119   0.002305
    11  H    0.009422  -0.001163   0.005278  -0.000119   0.485095   0.000008
    12  H   -0.001133   0.001564   0.000107   0.002305   0.000008   0.458794
          Atomic-Atomic Spin Densities.
               1          2          3          4          5          6
     1  O   -0.002924   0.000006  -0.000150   0.004017   0.001344  -0.001021
     2  O    0.000006   0.061328  -0.042315  -0.003339   0.019506   0.000656
     3  O   -0.000150  -0.042315   0.556406   0.010336  -0.115450  -0.001040
     4  C    0.004017  -0.003339   0.010336  -0.023161  -0.045534   0.005761
     5  C    0.001344   0.019506  -0.115450  -0.045534   0.763938  -0.016973
     6  H   -0.001021   0.000656  -0.001040   0.005761  -0.016973   0.065912
     7  H    0.000059  -0.003462   0.002912   0.010623  -0.010446  -0.008352
     8  H    0.000060   0.008480  -0.033049  -0.006732   0.062991   0.000541
     9  H    0.000009  -0.000417   0.002945   0.006207  -0.006290  -0.002039
    10  H   -0.000188  -0.001370   0.002735   0.005504  -0.006096  -0.001040
    11  H   -0.000363  -0.000004   0.000037   0.000456  -0.000238  -0.000860
    12  H    0.000001   0.001215  -0.001065   0.000045  -0.000369   0.000010
               7          8          9         10         11         12
     1  O    0.000059   0.000060   0.000009  -0.000188  -0.000363   0.000001
     2  O   -0.003462   0.008480  -0.000417  -0.001370  -0.000004   0.001215
     3  O    0.002912  -0.033049   0.002945   0.002735   0.000037  -0.001065
     4  C    0.010623  -0.006732   0.006207   0.005504   0.000456   0.000045
     5  C   -0.010446   0.062991  -0.006290  -0.006096  -0.000238  -0.000369
     6  H   -0.008352   0.000541  -0.002039  -0.001040  -0.000860   0.000010
     7  H    0.021169   0.000009   0.000204   0.000373   0.000244  -0.000036
     8  H    0.000009  -0.060939   0.000369   0.001149  -0.000101   0.000143
     9  H    0.000204   0.000369  -0.031756   0.003036   0.000069  -0.000008
    10  H    0.000373   0.001149   0.003036  -0.036595   0.000019  -0.000074
    11  H    0.000244  -0.000101   0.000069   0.000019   0.001041  -0.000000
    12  H   -0.000036   0.000143  -0.000008  -0.000074  -0.000000  -0.001724
 Mulliken charges and spin densities:
               1          2
     1  O   -0.375403   0.000850
     2  O   -0.239783   0.040284
     3  O   -0.215406   0.382304
     4  C   -0.030411  -0.035817
     5  C   -0.389125   0.646384
     6  H    0.092131   0.041556
     7  H    0.134948   0.013297
     8  H    0.247992  -0.027079
     9  H    0.128430  -0.027671
    10  H    0.138740  -0.032546
    11  H    0.239702   0.000299
    12  H    0.268186  -0.001862
 Sum of Mulliken charges =  -0.00000   1.00000
 Mulliken charges and spin densities with hydrogens summed into heavy atoms:
               1          2
     1  O   -0.135701   0.001149
     2  O    0.028402   0.038423
     3  O    0.032586   0.355226
     4  C    0.196669   0.019036
     5  C   -0.121955   0.586167
 Electronic spatial extent (au):  <R**2>=            584.1843
 Charge=             -0.0000 electrons
 Dipole moment (field-independent basis, Debye):
    X=             -0.7711    Y=              2.7278    Z=              2.1912  Tot=              3.5828
 Quadrupole moment (field-independent basis, Debye-Ang):
   XX=            -27.9531   YY=            -32.7532   ZZ=            -30.0529
   XY=             -2.2518   XZ=              4.4968   YZ=             -1.0549
 Traceless Quadrupole moment (field-independent basis, Debye-Ang):
   XX=              2.3000   YY=             -2.5001   ZZ=              0.2002
   XY=             -2.2518   XZ=              4.4968   YZ=             -1.0549
 Octapole moment (field-independent basis, Debye-Ang**2):
  XXX=              3.8520  YYY=             -2.1985  ZZZ=             -0.0593  XYY=              2.0659
  XXY=             10.2800  XXZ=              6.9411  XZZ=              2.8131  YZZ=              0.0621
  YYZ=             -0.6803  XYZ=              3.9718
 Hexadecapole moment (field-independent basis, Debye-Ang**3):
 XXXX=           -409.3242 YYYY=           -122.0306 ZZZZ=            -92.6415 XXXY=            -14.6297
 XXXZ=             43.7718 YYYX=             -0.9483 YYYZ=             -2.7464 ZZZX=             11.1322
 ZZZY=             -1.5817 XXYY=           -109.3101 XXZZ=            -81.6046 YYZZ=            -35.3924
 XXYZ=             -3.2241 YYXZ=              1.7267 ZZXY=             -0.9902
 N-N= 1.878906608802D+02 E-N=-1.095132261062D+03  KE= 3.043548660116D+02
                          Isotropic Fermi Contact Couplings
        Atom                 a.u.       MegaHertz       Gauss      10(-4) cm-1
     1  O(17)             -0.00078       0.47453       0.16932       0.15829
     2  O(17)              0.00144      -0.87147      -0.31096      -0.29069
     3  O(17)              0.10210     -61.89108     -22.08428     -20.64464
     4  C(13)             -0.01294     -14.54855      -5.19128      -4.85287
     5  C(13)              0.18370     206.50882      73.68748      68.88393
     6  H(1)               0.02059      92.03051      32.83877      30.69807
     7  H(1)               0.00842      37.61535      13.42209      12.54713
     8  H(1)              -0.03143    -140.48597     -50.12889     -46.86108
     9  H(1)              -0.00346     -15.48459      -5.52529      -5.16510
    10  H(1)              -0.00832     -37.18876     -13.26987     -12.40483
    11  H(1)               0.00000       0.01618       0.00577       0.00540
    12  H(1)              -0.00105      -4.68576      -1.67200      -1.56300
 --------------------------------------------------------
       Center         ----  Spin Dipole Couplings  ----
                      3XX-RR        3YY-RR        3ZZ-RR
 --------------------------------------------------------
     1   Atom       -0.003614     -0.003529      0.007143
     2   Atom        0.237483     -0.076691     -0.160792
     3   Atom        1.194322     -0.640073     -0.554249
     4   Atom        0.027244     -0.014189     -0.013055
     5   Atom        0.153576     -0.215969      0.062393
     6   Atom        0.000482     -0.003416      0.002934
     7   Atom       -0.005384      0.010373     -0.004989
     8   Atom        0.136638     -0.074682     -0.061956
     9   Atom       -0.010455      0.005441      0.005014
    10   Atom        0.005995     -0.026387      0.020392
    11   Atom        0.005903     -0.003627     -0.002276
    12   Atom        0.001512     -0.008698      0.007186
 --------------------------------------------------------
                        XY            XZ            YZ
 --------------------------------------------------------
     1   Atom        0.003464      0.006113      0.006167
     2   Atom       -0.186418     -0.096709      0.091089
     3   Atom       -0.835242     -0.936799      0.344367
     4   Atom        0.005968     -0.019264     -0.001846
     5   Atom       -0.266615     -0.455563      0.240486
     6   Atom        0.004286     -0.009020     -0.000562
     7   Atom        0.002152     -0.002652     -0.008859
     8   Atom       -0.105328     -0.081030      0.040240
     9   Atom       -0.037715      0.006076     -0.029839
    10   Atom        0.007185      0.022316      0.034810
    11   Atom        0.003748      0.003745      0.001730
    12   Atom       -0.001566      0.013944      0.004350
 --------------------------------------------------------


 ---------------------------------------------------------------------------------
              Anisotropic Spin Dipole Couplings in Principal Axis System
 ---------------------------------------------------------------------------------

       Atom             a.u.   MegaHertz   Gauss  10(-4) cm-1        Axes

              Baa    -0.0070     0.509     0.182     0.170  0.7155 -0.6986 -0.0046
     1 O(17)  Bbb    -0.0059     0.426     0.152     0.142  0.5796  0.5973 -0.5544
              Bcc     0.0129    -0.935    -0.334    -0.312  0.3901  0.3940  0.8322
 
              Baa    -0.2206    15.960     5.695     5.324 -0.0781 -0.6036  0.7935
     2 O(17)  Bbb    -0.1346     9.742     3.476     3.250  0.4828  0.6734  0.5598
              Bcc     0.3552   -25.702    -9.171    -8.573  0.8722 -0.4269 -0.2388
 
              Baa    -0.9762    70.638    25.205    23.562  0.4986  0.6399  0.5847
     3 O(17)  Bbb    -0.9439    68.302    24.372    22.783  0.0448 -0.6927  0.7199
              Bcc     1.9201  -138.940   -49.577   -46.345  0.8657 -0.3327 -0.3740
 
              Baa    -0.0208    -2.795    -0.997    -0.932  0.3797 -0.0853  0.9212
     4 C(13)  Bbb    -0.0149    -2.002    -0.715    -0.668 -0.0826  0.9886  0.1256
              Bcc     0.0357     4.797     1.712     1.600  0.9214  0.1237 -0.3684
 
              Baa    -0.3559   -47.757   -17.041   -15.930  0.3276  0.9281 -0.1768
     5 C(13)  Bbb    -0.3498   -46.941   -16.750   -15.658  0.6443 -0.0826  0.7603
              Bcc     0.7057    94.698    33.790    31.588  0.6910 -0.3630 -0.6251
 
              Baa    -0.0090    -4.807    -1.715    -1.603  0.7065 -0.4901  0.5105
     6 H(1)   Bbb    -0.0025    -1.348    -0.481    -0.450  0.2383  0.8440  0.4805
              Bcc     0.0115     6.155     2.196     2.053 -0.6664 -0.2178  0.7131
 
              Baa    -0.0096    -5.139    -1.834    -1.714  0.3659  0.3436  0.8649
     7 H(1)   Bbb    -0.0053    -2.801    -1.000    -0.934  0.9185 -0.2831 -0.2761
              Bcc     0.0149     7.940     2.833     2.648  0.1500  0.8954 -0.4192
 
              Baa    -0.1195   -63.757   -22.750   -21.267  0.3175  0.9267 -0.2010
     8 H(1)   Bbb    -0.0906   -48.355   -17.254   -16.129  0.3659  0.0758  0.9276
              Bcc     0.2101   112.112    40.004    37.396  0.8748 -0.3680 -0.3150
 
              Baa    -0.0458   -24.428    -8.716    -8.148  0.6662  0.6751  0.3169
     9 H(1)   Bbb    -0.0064    -3.430    -1.224    -1.144 -0.5718  0.1896  0.7982
              Bcc     0.0522    27.857     9.940     9.292 -0.4788  0.7129 -0.5124
 
              Baa    -0.0453   -24.180    -8.628    -8.066  0.0919  0.8667 -0.4903
    10 H(1)   Bbb    -0.0055    -2.954    -1.054    -0.985  0.8838 -0.2978 -0.3608
              Bcc     0.0509    27.134     9.682     9.051  0.4587  0.4002  0.7933
 
              Baa    -0.0050    -2.692    -0.961    -0.898 -0.2235  0.9334 -0.2808
    11 H(1)   Bbb    -0.0037    -1.968    -0.702    -0.656 -0.4152  0.1695  0.8938
              Bcc     0.0087     4.659     1.663     1.554  0.8819  0.3163  0.3497
 
              Baa    -0.0134    -7.136    -2.546    -2.380  0.5492  0.6603 -0.5122
    12 H(1)   Bbb    -0.0054    -2.889    -1.031    -0.964 -0.5594  0.7458  0.3616
              Bcc     0.0188    10.024     3.577     3.344  0.6208  0.0879  0.7790
 

 ---------------------------------------------------------------------------------

 No NMR shielding tensors so no spin-rotation constants.
 Leave Link  601 at Thu May 30 06:38:11 2019, MaxMem=   671088640 cpu:               7.9 elap:               0.4
 (Enter /shared/centos7/gaussian/g16/l9999.exe)
 1\1\GINC-C0187\FOpt\UM062X\CC-pVTZ\C2H7O3(2)\HARMS.N\30-May-2019\0\\#p
  m062x/cc-pVTZ Opt=(ModRedun,Loose,maxcycles=900) Int(Grid=SG1) scf=(m
 axcycle=900)\\Gaussian input prepared by ASE\\0,2\O,-5.5935128889,0.84
 53996265,7.4407021877\O,-2.1880888693,2.6622422412,6.5366689442\O,-2.6
 552832411,1.9950661555,5.412167527\C,-5.1823962757,2.1904196278,7.3271
 1226\C,-4.9375194843,2.6128096662,5.9103557901\H,-5.9179537717,2.86717
 39008,7.7872488843\H,-4.261619656,2.2828426844,7.9034862478\H,-3.80787
 90058,1.9281739085,5.5520279952\H,-5.6883576272,2.296799904,5.18812456
 98\H,-4.6276932552,3.6450279552,5.7814366335\H,-6.4210504706,0.7347905
 783,6.9657977412\H,-2.0060646904,3.5489601104,6.2009490079\\Version=EM
 64L-G16RevA.03\State=2-A\HF=-305.8903103\S2=0.759905\S2-1=0.\S2A=0.750
 048\RMSD=2.598e-09\RMSF=3.066e-03\Dipole=-0.811642,1.1117372,-0.303683
 9\Quadrupole=1.8318047,0.5605675,-2.3923721,3.1687412,1.4514809,0.9753
 856\PG=C01 [X(C2H7O3)]\\@


 THERE IS NOTHING NOBLE IN BEING SUPERIOR TO SOME OTHER MAN.
 TRUE NOBILITY IS BEING SUPERIOR TO YOUR FORMER SELF.

                                                   -- HINDU PROVERB
 Job cpu time:       0 days  2 hours 47 minutes 30.4 seconds.
 Elapsed time:       0 days  0 hours  8 minutes 29.2 seconds.
 File lengths (MBytes):  RWF=    288 Int=      0 D2E=      0 Chk=     32 Scr=     32
 Normal termination of Gaussian 16 at Thu May 30 06:38:11 2019.
