 Entering Gaussian System, Link 0=g16
 Initial command:
 /shared/centos7/gaussian/g16/l1.exe "/scratch/harms.n/gauss_scrdir/Gau-24676.inp" -scrdir="/scratch/harms.n/gauss_scrdir/"
 Entering Link 1 = /shared/centos7/gaussian/g16/l1.exe PID=     24677.
  
 Copyright (c) 1988,1990,1992,1993,1995,1998,2003,2009,2016,
            Gaussian, Inc.  All Rights Reserved.
  
 This is part of the Gaussian(R) 16 program.  It is based on
 the Gaussian(R) 09 system (copyright 2009, Gaussian, Inc.),
 the Gaussian(R) 03 system (copyright 2003, Gaussian, Inc.),
 the Gaussian(R) 98 system (copyright 1998, Gaussian, Inc.),
 the Gaussian(R) 94 system (copyright 1995, Gaussian, Inc.),
 the Gaussian 92(TM) system (copyright 1992, Gaussian, Inc.),
 the Gaussian 90(TM) system (copyright 1990, Gaussian, Inc.),
 the Gaussian 88(TM) system (copyright 1988, Gaussian, Inc.),
 the Gaussian 86(TM) system (copyright 1986, Carnegie Mellon
 University), and the Gaussian 82(TM) system (copyright 1983,
 Carnegie Mellon University). Gaussian is a federally registered
 trademark of Gaussian, Inc.
  
 This software contains proprietary and confidential information,
 including trade secrets, belonging to Gaussian, Inc.
  
 This software is provided under written license and may be
 used, copied, transmitted, or stored only in accord with that
 written license.
  
 The following legend is applicable only to US Government
 contracts under FAR:
  
                    RESTRICTED RIGHTS LEGEND
  
 Use, reproduction and disclosure by the US Government is
 subject to restrictions as set forth in subparagraphs (a)
 and (c) of the Commercial Computer Software - Restricted
 Rights clause in FAR 52.227-19.
  
 Gaussian, Inc.
 340 Quinnipiac St., Bldg. 40, Wallingford CT 06492
  
  
 ---------------------------------------------------------------
 Warning -- This program may not be used in any manner that
 competes with the business of Gaussian, Inc. or will provide
 assistance to any competitor of Gaussian, Inc.  The licensee
 of this program is prohibited from giving any competitor of
 Gaussian, Inc. access to this program.  By using this program,
 the user acknowledges that Gaussian, Inc. is engaged in the
 business of creating and licensing software in the field of
 computational chemistry and represents and warrants to the
 licensee that it is not a competitor of Gaussian, Inc. and that
 it will not use this program in any manner prohibited above.
 ---------------------------------------------------------------
  

 Cite this work as:
 Gaussian 16, Revision A.03,
 M. J. Frisch, G. W. Trucks, H. B. Schlegel, G. E. Scuseria, 
 M. A. Robb, J. R. Cheeseman, G. Scalmani, V. Barone, 
 G. A. Petersson, H. Nakatsuji, X. Li, M. Caricato, A. V. Marenich, 
 J. Bloino, B. G. Janesko, R. Gomperts, B. Mennucci, H. P. Hratchian, 
 J. V. Ortiz, A. F. Izmaylov, J. L. Sonnenberg, D. Williams-Young, 
 F. Ding, F. Lipparini, F. Egidi, J. Goings, B. Peng, A. Petrone, 
 T. Henderson, D. Ranasinghe, V. G. Zakrzewski, J. Gao, N. Rega, 
 G. Zheng, W. Liang, M. Hada, M. Ehara, K. Toyota, R. Fukuda, 
 J. Hasegawa, M. Ishida, T. Nakajima, Y. Honda, O. Kitao, H. Nakai, 
 T. Vreven, K. Throssell, J. A. Montgomery, Jr., J. E. Peralta, 
 F. Ogliaro, M. J. Bearpark, J. J. Heyd, E. N. Brothers, K. N. Kudin, 
 V. N. Staroverov, T. A. Keith, R. Kobayashi, J. Normand, 
 K. Raghavachari, A. P. Rendell, J. C. Burant, S. S. Iyengar, 
 J. Tomasi, M. Cossi, J. M. Millam, M. Klene, C. Adamo, R. Cammi, 
 J. W. Ochterski, R. L. Martin, K. Morokuma, O. Farkas, 
 J. B. Foresman, and D. J. Fox, Gaussian, Inc., Wallingford CT, 2016.
 
 ******************************************
 Gaussian 16:  EM64L-G16RevA.03 25-Dec-2016
                30-May-2019 
 ******************************************
 %nprocshared=20
 Will use up to   20 processors via shared memory.
 %mem=5GB
 ----------------------------------------------------------------------
 #p m062x/cc-pVTZ Opt=(ModRedun,Loose,maxcycles=900) Int(Grid=SG1) scf=
 (maxcycle=900)
 ----------------------------------------------------------------------
 1/6=900,7=-1,18=120,19=15,26=2,38=1/1,3;
 2/9=110,12=2,17=6,18=5,40=1/2;
 3/5=16,6=1,11=2,25=1,30=1,71=1,74=-55,75=1/1,2,3;
 4//1;
 5/5=2,7=900,38=5/2;
 6/7=2,8=2,9=2,10=2,28=1/1;
 7//1,2,3,16;
 1/6=900,7=-1,18=20,19=15,26=2/3(2);
 2/9=110/2;
 99//99;
 2/9=110/2;
 3/5=16,6=1,11=2,25=1,30=1,71=1,74=-55,75=1/1,2,3;
 4/5=5,16=3,69=1/1;
 5/5=2,7=900,38=5/2;
 7//1,2,3,16;
 1/6=900,7=-1,18=20,19=15,26=2/3(-5);
 2/9=110/2;
 6/7=2,8=2,9=2,10=2,19=2,28=1/1;
 99/9=1/99;
 Leave Link    1 at Thu May 30 06:29:36 2019, MaxMem=   671088640 cpu:              31.4 elap:               1.7
 (Enter /shared/centos7/gaussian/g16/l101.exe)
 ------------------------------
 Gaussian input prepared by ASE
 ------------------------------
 Symbolic Z-matrix:
 Charge =  0 Multiplicity = 2
 O                    -1.09371   3.55873  -2.75751 
 O                    -0.3844    1.63275  -0.90077 
 O                     0.39837   1.07725  -1.80143 
 C                     0.18451   4.02134  -2.41941 
 C                     1.30704   3.07401  -2.81607 
 H                     0.35776   5.01517  -2.88343 
 H                     0.19077   4.17137  -1.31639 
 H                     1.24696   2.8078   -3.89267 
 H                     2.29609   3.53843  -2.61859 
 H                    -1.07947   3.36042  -3.73035 
 H                    -1.14007   1.98487  -1.43576 
 H                     1.21567   2.09238  -2.21117 
 
 Add virtual bond connecting atoms H12        and O3         Dist= 2.58D+00.
 The following ModRedundant input section has been read:
 B       3      12 F                                                           
 B       5      12 F                                                           
 A       3      12       5 F                                                   
 
 ITRead=  0  0  0  0  0  0  0  0  0  0  0  0
 MicOpt= -1 -1 -1 -1 -1 -1 -1 -1 -1 -1 -1 -1
 NAtoms=     12 NQM=       12 NQMF=       0 NMMI=      0 NMMIF=      0
                NMic=       0 NMicF=      0.
                    Isotopes and Nuclear Properties:
 (Nuclear quadrupole moments (NQMom) in fm**2, nuclear magnetic moments (NMagM)
  in nuclear magnetons)

  Atom         1           2           3           4           5           6           7           8           9          10
 IAtWgt=          16          16          16          12          12           1           1           1           1           1
 AtmWgt=  15.9949146  15.9949146  15.9949146  12.0000000  12.0000000   1.0078250   1.0078250   1.0078250   1.0078250   1.0078250
 NucSpn=           0           0           0           0           0           1           1           1           1           1
 AtZEff=  -0.0000000  -0.0000000  -0.0000000  -0.0000000  -0.0000000  -0.0000000  -0.0000000  -0.0000000  -0.0000000  -0.0000000
 NQMom=    0.0000000   0.0000000   0.0000000   0.0000000   0.0000000   0.0000000   0.0000000   0.0000000   0.0000000   0.0000000
 NMagM=    0.0000000   0.0000000   0.0000000   0.0000000   0.0000000   2.7928460   2.7928460   2.7928460   2.7928460   2.7928460
 AtZNuc=   8.0000000   8.0000000   8.0000000   6.0000000   6.0000000   1.0000000   1.0000000   1.0000000   1.0000000   1.0000000

  Atom        11          12
 IAtWgt=           1           1
 AtmWgt=   1.0078250   1.0078250
 NucSpn=           1           1
 AtZEff=  -0.0000000  -0.0000000
 NQMom=    0.0000000   0.0000000
 NMagM=    2.7928460   2.7928460
 AtZNuc=   1.0000000   1.0000000
 Leave Link  101 at Thu May 30 06:29:37 2019, MaxMem=   671088640 cpu:               5.3 elap:               0.3
 (Enter /shared/centos7/gaussian/g16/l103.exe)

 GradGradGradGradGradGradGradGradGradGradGradGradGradGradGradGradGradGrad
 Berny optimization.
 Initialization pass.
                           ----------------------------
                           !    Initial Parameters    !
                           ! (Angstroms and Degrees)  !
 --------------------------                            --------------------------
 ! Name  Definition              Value          Derivative Info.                !
 --------------------------------------------------------------------------------
 ! R1    R(1,4)                  1.4008         estimate D2E/DX2                !
 ! R2    R(1,10)                 0.9929         estimate D2E/DX2                !
 ! R3    R(2,3)                  1.3162         estimate D2E/DX2                !
 ! R4    R(2,11)                 0.9906         estimate D2E/DX2                !
 ! R5    R(3,12)                 1.3661         Frozen                          !
 ! R6    R(4,5)                  1.5215         estimate D2E/DX2                !
 ! R7    R(4,6)                  1.1104         estimate D2E/DX2                !
 ! R8    R(4,7)                  1.1132         estimate D2E/DX2                !
 ! R9    R(5,8)                  1.1107         estimate D2E/DX2                !
 ! R10   R(5,9)                  1.1104         estimate D2E/DX2                !
 ! R11   R(5,12)                 1.1567         Frozen                          !
 ! A1    A(4,1,10)             106.8195         estimate D2E/DX2                !
 ! A2    A(3,2,11)             103.5409         estimate D2E/DX2                !
 ! A3    A(2,3,12)             104.3246         estimate D2E/DX2                !
 ! A4    A(1,4,5)              113.8717         estimate D2E/DX2                !
 ! A5    A(1,4,6)              109.6999         estimate D2E/DX2                !
 ! A6    A(1,4,7)              106.7868         estimate D2E/DX2                !
 ! A7    A(5,4,6)              109.4638         estimate D2E/DX2                !
 ! A8    A(5,4,7)              109.7604         estimate D2E/DX2                !
 ! A9    A(6,4,7)              107.0108         estimate D2E/DX2                !
 ! A10   A(4,5,8)              111.2258         estimate D2E/DX2                !
 ! A11   A(4,5,9)              110.5116         estimate D2E/DX2                !
 ! A12   A(4,5,12)             109.4997         estimate D2E/DX2                !
 ! A13   A(8,5,9)              108.7132         estimate D2E/DX2                !
 ! A14   A(8,5,12)             107.4123         estimate D2E/DX2                !
 ! A15   A(9,5,12)             109.4101         estimate D2E/DX2                !
 ! A16   A(3,12,5)             146.5878         Frozen                          !
 ! D1    D(10,1,4,5)           -54.5685         estimate D2E/DX2                !
 ! D2    D(10,1,4,6)            68.4896         estimate D2E/DX2                !
 ! D3    D(10,1,4,7)          -175.8788         estimate D2E/DX2                !
 ! D4    D(11,2,3,12)           88.317          estimate D2E/DX2                !
 ! D5    D(2,3,12,5)           -72.564          estimate D2E/DX2                !
 ! D6    D(1,4,5,8)             53.3354         estimate D2E/DX2                !
 ! D7    D(1,4,5,9)            174.1846         estimate D2E/DX2                !
 ! D8    D(1,4,5,12)           -65.2254         estimate D2E/DX2                !
 ! D9    D(6,4,5,8)            -69.8514         estimate D2E/DX2                !
 ! D10   D(6,4,5,9)             50.9978         estimate D2E/DX2                !
 ! D11   D(6,4,5,12)           171.5878         estimate D2E/DX2                !
 ! D12   D(7,4,5,8)            172.9769         estimate D2E/DX2                !
 ! D13   D(7,4,5,9)            -66.1739         estimate D2E/DX2                !
 ! D14   D(7,4,5,12)            54.4161         estimate D2E/DX2                !
 ! D15   D(4,5,12,3)            49.725          estimate D2E/DX2                !
 ! D16   D(8,5,12,3)           -71.1772         estimate D2E/DX2                !
 ! D17   D(9,5,12,3)           170.9828         estimate D2E/DX2                !
 --------------------------------------------------------------------------------
 Trust Radius=3.00D-01 FncErr=1.00D-05 GrdErr=1.00D-04 EigMax=2.50D+02 EigMin=1.00D-04
 Number of steps in this run=    100 maximum allowed number of steps=    100.
 GradGradGradGradGradGradGradGradGradGradGradGradGradGradGradGradGradGrad

 Leave Link  103 at Thu May 30 06:29:37 2019, MaxMem=   671088640 cpu:               0.5 elap:               0.0
 (Enter /shared/centos7/gaussian/g16/l202.exe)
                          Input orientation:                          
 ---------------------------------------------------------------------
 Center     Atomic      Atomic             Coordinates (Angstroms)
 Number     Number       Type             X           Y           Z
 ---------------------------------------------------------------------
      1          8           0       -1.093707    3.558730   -2.757513
      2          8           0       -0.384403    1.632753   -0.900775
      3          8           0        0.398370    1.077254   -1.801432
      4          6           0        0.184506    4.021341   -2.419412
      5          6           0        1.307042    3.074010   -2.816069
      6          1           0        0.357758    5.015167   -2.883426
      7          1           0        0.190774    4.171372   -1.316393
      8          1           0        1.246963    2.807799   -3.892674
      9          1           0        2.296092    3.538433   -2.618595
     10          1           0       -1.079474    3.360421   -3.730351
     11          1           0       -1.140068    1.984875   -1.435761
     12          1           0        1.215672    2.092376   -2.211170
 ---------------------------------------------------------------------
                    Distance matrix (angstroms):
                    1          2          3          4          5
     1  O    0.000000
     2  O    2.767666   0.000000
     3  O    3.049280   1.316243   0.000000
     4  C    1.400767   2.887087   3.015840   0.000000
     5  C    2.449893   2.933695   2.417067   1.521466   0.000000
     6  H    2.060052   3.990292   4.084057   1.110412   2.161889
     7  H    2.025352   2.635935   3.138778   1.113194   2.167784
     8  H    2.707623   3.604657   2.843975   2.184491   1.110656
     9  H    3.392704   3.710469   3.213489   2.175240   1.110362
    10  H    0.992947   3.387397   3.334307   1.937272   2.571653
    11  H    2.055772   0.990570   1.823261   2.620927   3.013273
    12  H    2.789608   2.118639   1.366141   2.197174   1.156658
                    6          7          8          9         10
     6  H    0.000000
     7  H    1.787587   0.000000
     8  H    2.584907   3.100338   0.000000
     9  H    2.451125   2.555133   1.804931   0.000000
    10  H    2.349703   2.845763   2.396674   3.558389   0.000000
    11  H    3.677212   2.562452   3.523002   3.952193   2.675994
    12  H    3.119399   2.484606   1.827639   1.850509   3.030436
                   11         12
    11  H    0.000000
    12  H    2.482404   0.000000
 Stoichiometry    C2H7O3(2)
 Framework group  C1[X(C2H7O3)]
 Deg. of freedom    30
 Full point group                 C1      NOp   1
 Largest Abelian subgroup         C1      NOp   1
 Largest concise Abelian subgroup C1      NOp   1
                         Standard orientation:                         
 ---------------------------------------------------------------------
 Center     Atomic      Atomic             Coordinates (Angstroms)
 Number     Number       Type             X           Y           Z
 ---------------------------------------------------------------------
      1          8           0       -1.029179   -1.128787   -0.380172
      2          8           0        1.555081   -0.571087    0.438698
      3          8           0        1.575652    0.456442   -0.383651
      4          6           0       -1.280907   -0.030467    0.451980
      5          6           0       -0.674590    1.272411   -0.047768
      6          1           0       -2.376238    0.097161    0.582272
      7          1           0       -0.861101   -0.281797    1.451878
      8          1           0       -0.979717    1.482345   -1.094850
      9          1           0       -0.993625    2.121087    0.593223
     10          1           0       -1.342547   -0.878770   -1.288596
     11          1           0        0.994597   -1.236269   -0.035243
     12          1           0        0.479177    1.192036   -0.032958
 ---------------------------------------------------------------------
 Rotational constants (GHZ):           6.7682263           3.4224313           2.6529945
 Leave Link  202 at Thu May 30 06:29:37 2019, MaxMem=   671088640 cpu:               1.4 elap:               0.1
 (Enter /shared/centos7/gaussian/g16/l301.exe)
 Standard basis: CC-pVTZ (5D, 7F)
 Ernie: Thresh=  0.10000D-02 Tol=  0.10000D-05 Strict=F.
 Ernie:  15 primitive shells out of 186 were deleted.
 There are   280 symmetry adapted cartesian basis functions of A   symmetry.
 There are   248 symmetry adapted basis functions of A   symmetry.
   248 basis functions,   379 primitive gaussians,   280 cartesian basis functions
    22 alpha electrons       21 beta electrons
       nuclear repulsion energy       196.6174124941 Hartrees.
 IExCor= 4336 DFT=T Ex+Corr=M062X ExCW=0 ScaHFX=  0.540000
 ScaDFX=  1.000000  1.000000  1.000000  1.000000 ScalE2=  1.000000  1.000000
 IRadAn=      1 IRanWt=     -1 IRanGd=            0 ICorTp=0 IEmpDi=  4
 NAtoms=   12 NActive=   12 NUniq=   12 SFac= 1.00D+00 NAtFMM=   60 NAOKFM=F Big=F
 Integral buffers will be    131072 words long.
 Raffenetti 2 integral format.
 Two-electron integral symmetry is turned on.
 Leave Link  301 at Thu May 30 06:29:37 2019, MaxMem=   671088640 cpu:               1.4 elap:               0.1
 (Enter /shared/centos7/gaussian/g16/l302.exe)
 NPDir=0 NMtPBC=     1 NCelOv=     1 NCel=       1 NClECP=     1 NCelD=      1
         NCelK=      1 NCelE2=     1 NClLst=     1 CellRange=     0.0.
 One-electron integrals computed using PRISM.
 One-electron integral symmetry used in STVInt
 NBasis=   248 RedAO= T EigKep=  7.99D-04  NBF=   248
 NBsUse=   248 1.00D-06 EigRej= -1.00D+00 NBFU=   248
 Precomputing XC quadrature grid using
 IXCGrd= 4 IRadAn=           1 IRanWt=          -1 IRanGd=           0 AccXCQ= 0.00D+00.
 Generated NRdTot=       0 NPtTot=           0 NUsed=           0 NTot=          32
 NSgBfM=   280   280   280   280   280 MxSgAt=    12 MxSgA2=    12.
 Leave Link  302 at Thu May 30 06:29:37 2019, MaxMem=   671088640 cpu:               4.9 elap:               0.3
 (Enter /shared/centos7/gaussian/g16/l303.exe)
 DipDrv:  MaxL=1.
 Leave Link  303 at Thu May 30 06:29:37 2019, MaxMem=   671088640 cpu:               0.5 elap:               0.0
 (Enter /shared/centos7/gaussian/g16/l401.exe)
 ExpMin= 1.03D-01 ExpMax= 1.53D+04 ExpMxC= 5.22D+02 IAcc=1 IRadAn=         1 AccDes= 0.00D+00
 Harris functional with IExCor= 1009 and IRadAn=       1 diagonalized for initial guess.
 HarFok:  IExCor= 1009 AccDes= 0.00D+00 IRadAn=         1 IDoV= 1 UseB2=F ITyADJ=14
 ICtDFT=  3500011 ScaDFX=  1.000000  1.000000  1.000000  1.000000
 FoFCou: FMM=F IPFlag=           0 FMFlag=      100000 FMFlg1=           0
         NFxFlg=           0 DoJE=T BraDBF=F KetDBF=T FulRan=T
         wScrn=  0.000000 ICntrl=       500 IOpCl=  0 I1Cent=   200000004 NGrid=           0
         NMat0=    1 NMatS0=      1 NMatT0=    0 NMatD0=    1 NMtDS0=    0 NMtDT0=    0
 Petite list used in FoFCou.
 Harris En= -305.784392756930    
 JPrj=0 DoOrth=F DoCkMO=F.
 Initial guess <Sx>= 0.0000 <Sy>= 0.0000 <Sz>= 0.5000 <S**2>= 0.7500 S= 0.5000
 Leave Link  401 at Thu May 30 06:29:38 2019, MaxMem=   671088640 cpu:              10.6 elap:               0.6
 (Enter /shared/centos7/gaussian/g16/l502.exe)
 Integral symmetry usage will be decided dynamically.
 UHF open shell SCF:
 Using DIIS extrapolation, IDIIS=  1040.
 NGot=   671088640 LenX=   670923676 LenY=   670844835
 Requested convergence on RMS density matrix=1.00D-08 within 900 cycles.
 Requested convergence on MAX density matrix=1.00D-06.
 Requested convergence on             energy=1.00D-06.
 No special actions if energy rises.
 Fock matrices will be formed incrementally for  20 cycles.

 Cycle   1  Pass 1  IDiag  1:
 FoFJK:  IHMeth= 1 ICntrl=       0 DoSepK=F KAlg= 0 I1Cent=           0 FoldK=F
 IRaf= 990000000 NMat=       1 IRICut=       1 DoRegI=T DoRafI=F ISym2E= 0 IDoP0=0 IntGTp=1.
 FoFCou: FMM=F IPFlag=           0 FMFlag=      100000 FMFlg1=           0
         NFxFlg=           0 DoJE=F BraDBF=F KetDBF=F FulRan=T
         wScrn=  0.000000 ICntrl=         0 IOpCl=  1 I1Cent=           0 NGrid=           0
         NMat0=    1 NMatS0=      1 NMatT0=    0 NMatD0=    1 NMtDS0=    0 NMtDT0=    0
 Symmetry not used in FoFCou.
 E= -305.756063637381    
 DIIS: error= 1.85D-02 at cycle   1 NSaved=   1.
 NSaved= 1 IEnMin= 1 EnMin= -305.756063637381     IErMin= 1 ErrMin= 1.85D-02
 ErrMax= 1.85D-02  0.00D+00 EMaxC= 1.00D-01 BMatC= 8.23D-01 BMatP= 8.23D-01
 IDIUse=3 WtCom= 8.15D-01 WtEn= 1.85D-01
 Coeff-Com:  0.100D+01
 Coeff-En:   0.100D+01
 Coeff:      0.100D+01
 Gap=     0.383 Goal=   None    Shift=    0.000
 Gap=     0.302 Goal=   None    Shift=    0.000
 GapD=    0.302 DampG=1.000 DampE=0.500 DampFc=0.5000 IDamp=-1.
 Damping current iteration by 5.00D-01
 RMSDP=2.07D-03 MaxDP=9.72D-02              OVMax= 1.82D-01

 Cycle   2  Pass 1  IDiag  1:
 RMSU=  1.04D-03    CP:  1.00D+00
 E= -305.831652275027     Delta-E=       -0.075588637646 Rises=F Damp=T
 DIIS: error= 5.74D-03 at cycle   2 NSaved=   2.
 NSaved= 2 IEnMin= 2 EnMin= -305.831652275027     IErMin= 2 ErrMin= 5.74D-03
 ErrMax= 5.74D-03  0.00D+00 EMaxC= 1.00D-01 BMatC= 7.73D-02 BMatP= 8.23D-01
 IDIUse=3 WtCom= 9.43D-01 WtEn= 5.74D-02
 Coeff-Com: -0.988D-01 0.110D+01
 Coeff-En:   0.000D+00 0.100D+01
 Coeff:     -0.931D-01 0.109D+01
 Gap=     0.379 Goal=   None    Shift=    0.000
 Gap=     0.306 Goal=   None    Shift=    0.000
 RMSDP=5.06D-04 MaxDP=1.55D-02 DE=-7.56D-02 OVMax= 1.07D-01

 Cycle   3  Pass 1  IDiag  1:
 RMSU=  5.00D-04    CP:  1.00D+00  9.51D-01
 E= -305.905119034307     Delta-E=       -0.073466759280 Rises=F Damp=F
 DIIS: error= 2.76D-03 at cycle   3 NSaved=   3.
 NSaved= 3 IEnMin= 3 EnMin= -305.905119034307     IErMin= 3 ErrMin= 2.76D-03
 ErrMax= 2.76D-03  0.00D+00 EMaxC= 1.00D-01 BMatC= 2.03D-02 BMatP= 7.73D-02
 IDIUse=3 WtCom= 9.72D-01 WtEn= 2.76D-02
 Coeff-Com: -0.965D-01 0.362D+00 0.734D+00
 Coeff-En:   0.000D+00 0.000D+00 0.100D+01
 Coeff:     -0.938D-01 0.352D+00 0.742D+00
 Gap=     0.374 Goal=   None    Shift=    0.000
 Gap=     0.284 Goal=   None    Shift=    0.000
 RMSDP=1.99D-04 MaxDP=7.81D-03 DE=-7.35D-02 OVMax= 2.07D-02

 Cycle   4  Pass 1  IDiag  1:
 RMSU=  1.59D-04    CP:  1.00D+00  1.02D+00  8.16D-01
 E= -305.908140050187     Delta-E=       -0.003021015880 Rises=F Damp=F
 DIIS: error= 1.82D-03 at cycle   4 NSaved=   4.
 NSaved= 4 IEnMin= 4 EnMin= -305.908140050187     IErMin= 4 ErrMin= 1.82D-03
 ErrMax= 1.82D-03  0.00D+00 EMaxC= 1.00D-01 BMatC= 5.54D-03 BMatP= 2.03D-02
 IDIUse=3 WtCom= 9.82D-01 WtEn= 1.82D-02
 Coeff-Com: -0.377D-01 0.895D-01 0.385D+00 0.564D+00
 Coeff-En:   0.000D+00 0.000D+00 0.696D-01 0.930D+00
 Coeff:     -0.370D-01 0.879D-01 0.379D+00 0.570D+00
 Gap=     0.371 Goal=   None    Shift=    0.000
 Gap=     0.284 Goal=   None    Shift=    0.000
 RMSDP=7.81D-05 MaxDP=3.03D-03 DE=-3.02D-03 OVMax= 7.74D-03

 Cycle   5  Pass 1  IDiag  1:
 RMSU=  6.46D-05    CP:  1.00D+00  1.03D+00  8.79D-01  8.10D-01
 E= -305.909027590042     Delta-E=       -0.000887539855 Rises=F Damp=F
 DIIS: error= 6.02D-04 at cycle   5 NSaved=   5.
 NSaved= 5 IEnMin= 5 EnMin= -305.909027590042     IErMin= 5 ErrMin= 6.02D-04
 ErrMax= 6.02D-04  0.00D+00 EMaxC= 1.00D-01 BMatC= 3.89D-04 BMatP= 5.54D-03
 IDIUse=3 WtCom= 9.94D-01 WtEn= 6.02D-03
 Coeff-Com: -0.581D-02 0.414D-02 0.944D-01 0.224D+00 0.683D+00
 Coeff-En:   0.000D+00 0.000D+00 0.000D+00 0.000D+00 0.100D+01
 Coeff:     -0.577D-02 0.412D-02 0.938D-01 0.223D+00 0.685D+00
 Gap=     0.371 Goal=   None    Shift=    0.000
 Gap=     0.286 Goal=   None    Shift=    0.000
 RMSDP=3.18D-05 MaxDP=2.11D-03 DE=-8.88D-04 OVMax= 7.29D-03

 Cycle   6  Pass 1  IDiag  1:
 RMSU=  2.74D-05    CP:  1.00D+00  1.03D+00  8.98D-01  8.85D-01  9.27D-01
 E= -305.909150312045     Delta-E=       -0.000122722003 Rises=F Damp=F
 DIIS: error= 3.40D-04 at cycle   6 NSaved=   6.
 NSaved= 6 IEnMin= 6 EnMin= -305.909150312045     IErMin= 6 ErrMin= 3.40D-04
 ErrMax= 3.40D-04  0.00D+00 EMaxC= 1.00D-01 BMatC= 1.44D-04 BMatP= 3.89D-04
 IDIUse=3 WtCom= 9.97D-01 WtEn= 3.40D-03
 Coeff-Com:  0.751D-02-0.218D-01-0.553D-01-0.839D-01 0.301D+00 0.852D+00
 Coeff-En:   0.000D+00 0.000D+00 0.000D+00 0.000D+00 0.000D+00 0.100D+01
 Coeff:      0.748D-02-0.218D-01-0.551D-01-0.836D-01 0.300D+00 0.853D+00
 Gap=     0.372 Goal=   None    Shift=    0.000
 Gap=     0.286 Goal=   None    Shift=    0.000
 RMSDP=2.73D-05 MaxDP=1.55D-03 DE=-1.23D-04 OVMax= 3.37D-03

 Cycle   7  Pass 1  IDiag  1:
 RMSU=  1.29D-05    CP:  1.00D+00  1.02D+00  9.04D-01  9.61D-01  1.23D+00
                    CP:  1.23D+00
 E= -305.909209801139     Delta-E=       -0.000059489094 Rises=F Damp=F
 DIIS: error= 1.09D-04 at cycle   7 NSaved=   7.
 NSaved= 7 IEnMin= 7 EnMin= -305.909209801139     IErMin= 7 ErrMin= 1.09D-04
 ErrMax= 1.09D-04  0.00D+00 EMaxC= 1.00D-01 BMatC= 2.07D-05 BMatP= 1.44D-04
 IDIUse=3 WtCom= 9.99D-01 WtEn= 1.09D-03
 Coeff-Com:  0.417D-02-0.769D-02-0.414D-01-0.105D+00-0.606D-01 0.236D+00
 Coeff-Com:  0.974D+00
 Coeff-En:   0.000D+00 0.000D+00 0.000D+00 0.000D+00 0.000D+00 0.000D+00
 Coeff-En:   0.100D+01
 Coeff:      0.416D-02-0.768D-02-0.414D-01-0.105D+00-0.605D-01 0.236D+00
 Coeff:      0.974D+00
 Gap=     0.373 Goal=   None    Shift=    0.000
 Gap=     0.287 Goal=   None    Shift=    0.000
 RMSDP=1.72D-05 MaxDP=1.07D-03 DE=-5.95D-05 OVMax= 3.02D-03

 Cycle   8  Pass 1  IDiag  1:
 RMSU=  7.29D-06    CP:  1.00D+00  1.02D+00  9.08D-01  9.96D-01  1.38D+00
                    CP:  1.59D+00  1.32D+00
 E= -305.909228528742     Delta-E=       -0.000018727604 Rises=F Damp=F
 DIIS: error= 6.33D-05 at cycle   8 NSaved=   8.
 NSaved= 8 IEnMin= 8 EnMin= -305.909228528742     IErMin= 8 ErrMin= 6.33D-05
 ErrMax= 6.33D-05  0.00D+00 EMaxC= 1.00D-01 BMatC= 4.99D-06 BMatP= 2.07D-05
 IDIUse=1 WtCom= 1.00D+00 WtEn= 0.00D+00
 Coeff-Com: -0.506D-04 0.130D-02-0.107D-02-0.182D-01-0.485D-01-0.823D-01
 Coeff-Com:  0.275D+00 0.873D+00
 Coeff:     -0.506D-04 0.130D-02-0.107D-02-0.182D-01-0.485D-01-0.823D-01
 Coeff:      0.275D+00 0.873D+00
 Gap=     0.373 Goal=   None    Shift=    0.000
 Gap=     0.287 Goal=   None    Shift=    0.000
 RMSDP=7.56D-06 MaxDP=4.73D-04 DE=-1.87D-05 OVMax= 1.57D-03

 Cycle   9  Pass 1  IDiag  1:
 RMSU=  3.56D-06    CP:  1.00D+00  1.02D+00  9.09D-01  1.00D+00  1.41D+00
                    CP:  1.72D+00  1.61D+00  1.44D+00
 E= -305.909232657698     Delta-E=       -0.000004128956 Rises=F Damp=F
 DIIS: error= 3.33D-05 at cycle   9 NSaved=   9.
 NSaved= 9 IEnMin= 9 EnMin= -305.909232657698     IErMin= 9 ErrMin= 3.33D-05
 ErrMax= 3.33D-05  0.00D+00 EMaxC= 1.00D-01 BMatC= 1.55D-06 BMatP= 4.99D-06
 IDIUse=1 WtCom= 1.00D+00 WtEn= 0.00D+00
 Coeff-Com: -0.140D-02 0.293D-02 0.157D-01 0.318D-01 0.107D-01-0.132D+00
 Coeff-Com: -0.253D+00 0.320D+00 0.101D+01
 Coeff:     -0.140D-02 0.293D-02 0.157D-01 0.318D-01 0.107D-01-0.132D+00
 Coeff:     -0.253D+00 0.320D+00 0.101D+01
 Gap=     0.373 Goal=   None    Shift=    0.000
 Gap=     0.287 Goal=   None    Shift=    0.000
 RMSDP=6.76D-06 MaxDP=3.92D-04 DE=-4.13D-06 OVMax= 1.85D-03

 Cycle  10  Pass 1  IDiag  1:
 RMSU=  2.40D-06    CP:  1.00D+00  1.02D+00  9.09D-01  1.01D+00  1.44D+00
                    CP:  1.81D+00  1.85D+00  2.00D+00  1.50D+00
 E= -305.909234945943     Delta-E=       -0.000002288245 Rises=F Damp=F
 DIIS: error= 1.87D-05 at cycle  10 NSaved=  10.
 NSaved=10 IEnMin=10 EnMin= -305.909234945943     IErMin=10 ErrMin= 1.87D-05
 ErrMax= 1.87D-05  0.00D+00 EMaxC= 1.00D-01 BMatC= 3.79D-07 BMatP= 1.55D-06
 IDIUse=1 WtCom= 1.00D+00 WtEn= 0.00D+00
 Coeff-Com:  0.154D-03-0.454D-03-0.442D-03 0.875D-03 0.800D-02 0.210D-01
 Coeff-Com: -0.308D-01-0.204D+00-0.120D-01 0.122D+01
 Coeff:      0.154D-03-0.454D-03-0.442D-03 0.875D-03 0.800D-02 0.210D-01
 Coeff:     -0.308D-01-0.204D+00-0.120D-01 0.122D+01
 Gap=     0.373 Goal=   None    Shift=    0.000
 Gap=     0.287 Goal=   None    Shift=    0.000
 RMSDP=4.53D-06 MaxDP=2.70D-04 DE=-2.29D-06 OVMax= 1.27D-03

 Cycle  11  Pass 1  IDiag  1:
 RMSU=  1.17D-06    CP:  1.00D+00  1.02D+00  9.10D-01  1.01D+00  1.44D+00
                    CP:  1.85D+00  1.96D+00  2.35D+00  2.14D+00  1.81D+00
 E= -305.909235931870     Delta-E=       -0.000000985927 Rises=F Damp=F
 DIIS: error= 1.41D-05 at cycle  11 NSaved=  11.
 NSaved=11 IEnMin=11 EnMin= -305.909235931870     IErMin=11 ErrMin= 1.41D-05
 ErrMax= 1.41D-05  0.00D+00 EMaxC= 1.00D-01 BMatC= 1.73D-07 BMatP= 3.79D-07
 IDIUse=1 WtCom= 1.00D+00 WtEn= 0.00D+00
 Coeff-Com:  0.601D-03-0.126D-02-0.671D-02-0.137D-01-0.486D-02 0.570D-01
 Coeff-Com:  0.112D+00-0.135D+00-0.442D+00-0.343D-01 0.147D+01
 Coeff:      0.601D-03-0.126D-02-0.671D-02-0.137D-01-0.486D-02 0.570D-01
 Coeff:      0.112D+00-0.135D+00-0.442D+00-0.343D-01 0.147D+01
 Gap=     0.373 Goal=   None    Shift=    0.000
 Gap=     0.286 Goal=   None    Shift=    0.000
 RMSDP=4.75D-06 MaxDP=2.74D-04 DE=-9.86D-07 OVMax= 1.43D-03

 Cycle  12  Pass 1  IDiag  1:
 RMSU=  6.44D-07    CP:  1.00D+00  1.02D+00  9.10D-01  1.02D+00  1.45D+00
                    CP:  1.89D+00  2.06D+00  2.64D+00  2.77D+00  2.96D+00
                    CP:  2.13D+00
 E= -305.909236607350     Delta-E=       -0.000000675480 Rises=F Damp=F
 DIIS: error= 7.75D-06 at cycle  12 NSaved=  12.
 NSaved=12 IEnMin=12 EnMin= -305.909236607350     IErMin=12 ErrMin= 7.75D-06
 ErrMax= 7.75D-06  0.00D+00 EMaxC= 1.00D-01 BMatC= 6.40D-08 BMatP= 1.73D-07
 IDIUse=1 WtCom= 1.00D+00 WtEn= 0.00D+00
 Coeff-Com:  0.755D-05 0.363D-04-0.120D-02-0.268D-02-0.436D-02 0.141D-02
 Coeff-Com:  0.311D-01 0.761D-01-0.892D-01-0.511D+00 0.127D+00 0.137D+01
 Coeff:      0.755D-05 0.363D-04-0.120D-02-0.268D-02-0.436D-02 0.141D-02
 Coeff:      0.311D-01 0.761D-01-0.892D-01-0.511D+00 0.127D+00 0.137D+01
 Gap=     0.373 Goal=   None    Shift=    0.000
 Gap=     0.286 Goal=   None    Shift=    0.000
 RMSDP=3.80D-06 MaxDP=2.21D-04 DE=-6.75D-07 OVMax= 1.19D-03

 Cycle  13  Pass 1  IDiag  1:
 RMSU=  2.35D-06    CP:  1.00D+00  1.02D+00  9.10D-01  1.02D+00  1.45D+00
                    CP:  1.92D+00  2.13D+00  2.86D+00  3.00D+00  3.00D+00
                    CP:  3.00D+00  1.97D+00
 E= -305.909236879365     Delta-E=       -0.000000272016 Rises=F Damp=F
 DIIS: error= 3.83D-06 at cycle  13 NSaved=  13.
 NSaved=13 IEnMin=13 EnMin= -305.909236879365     IErMin=13 ErrMin= 3.83D-06
 ErrMax= 3.83D-06  0.00D+00 EMaxC= 1.00D-01 BMatC= 1.77D-08 BMatP= 6.40D-08
 IDIUse=1 WtCom= 1.00D+00 WtEn= 0.00D+00
 Coeff-Com: -0.234D-03 0.510D-03 0.198D-02 0.411D-02 0.403D-03-0.203D-01
 Coeff-Com: -0.308D-01 0.824D-01 0.118D+00-0.131D+00-0.509D+00 0.446D+00
 Coeff-Com:  0.104D+01
 Coeff:     -0.234D-03 0.510D-03 0.198D-02 0.411D-02 0.403D-03-0.203D-01
 Coeff:     -0.308D-01 0.824D-01 0.118D+00-0.131D+00-0.509D+00 0.446D+00
 Coeff:      0.104D+01
 Gap=     0.373 Goal=   None    Shift=    0.000
 Gap=     0.286 Goal=   None    Shift=    0.000
 RMSDP=1.75D-06 MaxDP=1.01D-04 DE=-2.72D-07 OVMax= 5.61D-04

 Cycle  14  Pass 1  IDiag  1:
 RMSU=  5.94D-07    CP:  1.00D+00  1.02D+00  9.10D-01  1.02D+00  1.46D+00
                    CP:  1.93D+00  2.16D+00  2.96D+00  3.00D+00  3.00D+00
                    CP:  3.00D+00  2.69D+00  1.56D+00
 E= -305.909236924839     Delta-E=       -0.000000045473 Rises=F Damp=F
 DIIS: error= 9.06D-07 at cycle  14 NSaved=  14.
 NSaved=14 IEnMin=14 EnMin= -305.909236924839     IErMin=14 ErrMin= 9.06D-07
 ErrMax= 9.06D-07  0.00D+00 EMaxC= 1.00D-01 BMatC= 1.49D-09 BMatP= 1.77D-08
 IDIUse=1 WtCom= 1.00D+00 WtEn= 0.00D+00
 Coeff-Com:  0.144D-04-0.329D-04 0.219D-04 0.438D-04 0.698D-03 0.707D-03
 Coeff-Com: -0.269D-02-0.123D-01-0.574D-03 0.893D-01-0.395D-02-0.242D+00
 Coeff-Com: -0.965D-02 0.118D+01
 Coeff:      0.144D-04-0.329D-04 0.219D-04 0.438D-04 0.698D-03 0.707D-03
 Coeff:     -0.269D-02-0.123D-01-0.574D-03 0.893D-01-0.395D-02-0.242D+00
 Coeff:     -0.965D-02 0.118D+01
 Gap=     0.373 Goal=   None    Shift=    0.000
 Gap=     0.286 Goal=   None    Shift=    0.000
 RMSDP=4.74D-07 MaxDP=2.75D-05 DE=-4.55D-08 OVMax= 1.52D-04

 Cycle  15  Pass 1  IDiag  1:
 RMSU=  9.80D-08    CP:  1.00D+00  1.02D+00  9.10D-01  1.02D+00  1.46D+00
                    CP:  1.93D+00  2.17D+00  2.98D+00  3.00D+00  3.00D+00
                    CP:  3.00D+00  2.93D+00  1.71D+00  1.25D+00
 E= -305.909236927943     Delta-E=       -0.000000003104 Rises=F Damp=F
 DIIS: error= 2.95D-07 at cycle  15 NSaved=  15.
 NSaved=15 IEnMin=15 EnMin= -305.909236927943     IErMin=15 ErrMin= 2.95D-07
 ErrMax= 2.95D-07  0.00D+00 EMaxC= 1.00D-01 BMatC= 1.27D-10 BMatP= 1.49D-09
 IDIUse=1 WtCom= 1.00D+00 WtEn= 0.00D+00
 Coeff-Com:  0.251D-04-0.546D-04-0.219D-03-0.441D-03-0.359D-04 0.220D-02
 Coeff-Com:  0.343D-02-0.891D-02-0.140D-01 0.181D-01 0.541D-01-0.528D-01
 Coeff-Com: -0.122D+00 0.486D-01 0.107D+01
 Coeff:      0.251D-04-0.546D-04-0.219D-03-0.441D-03-0.359D-04 0.220D-02
 Coeff:      0.343D-02-0.891D-02-0.140D-01 0.181D-01 0.541D-01-0.528D-01
 Coeff:     -0.122D+00 0.486D-01 0.107D+01
 Gap=     0.373 Goal=   None    Shift=    0.000
 Gap=     0.286 Goal=   None    Shift=    0.000
 RMSDP=7.69D-08 MaxDP=4.07D-06 DE=-3.10D-09 OVMax= 2.26D-05

 Cycle  16  Pass 1  IDiag  1:
 RMSU=  2.44D-08    CP:  1.00D+00  1.02D+00  9.10D-01  1.02D+00  1.46D+00
                    CP:  1.93D+00  2.17D+00  2.98D+00  3.00D+00  3.00D+00
                    CP:  3.00D+00  2.97D+00  1.73D+00  1.30D+00  1.29D+00
 E= -305.909236928069     Delta-E=       -0.000000000126 Rises=F Damp=F
 DIIS: error= 7.35D-08 at cycle  16 NSaved=  16.
 NSaved=16 IEnMin=16 EnMin= -305.909236928069     IErMin=16 ErrMin= 7.35D-08
 ErrMax= 7.35D-08  0.00D+00 EMaxC= 1.00D-01 BMatC= 9.02D-12 BMatP= 1.27D-10
 IDIUse=1 WtCom= 1.00D+00 WtEn= 0.00D+00
 Coeff-Com: -0.261D-05 0.524D-05 0.484D-05 0.159D-04-0.343D-04-0.107D-03
 Coeff-Com:  0.111D-03 0.101D-02 0.357D-04-0.613D-02-0.235D-03 0.187D-01
 Coeff-Com: -0.290D-03-0.883D-01-0.482D-02 0.108D+01
 Coeff:     -0.261D-05 0.524D-05 0.484D-05 0.159D-04-0.343D-04-0.107D-03
 Coeff:      0.111D-03 0.101D-02 0.357D-04-0.613D-02-0.235D-03 0.187D-01
 Coeff:     -0.290D-03-0.883D-01-0.482D-02 0.108D+01
 Gap=     0.373 Goal=   None    Shift=    0.000
 Gap=     0.286 Goal=   None    Shift=    0.000
 RMSDP=1.28D-08 MaxDP=5.15D-07 DE=-1.26D-10 OVMax= 1.53D-06

 Cycle  17  Pass 1  IDiag  1:
 RMSU=  7.47D-09    CP:  1.00D+00  1.02D+00  9.10D-01  1.02D+00  1.46D+00
                    CP:  1.93D+00  2.17D+00  2.98D+00  3.00D+00  3.00D+00
                    CP:  3.00D+00  2.97D+00  1.73D+00  1.30D+00  1.36D+00
                    CP:  1.27D+00
 E= -305.909236928067     Delta-E=        0.000000000003 Rises=F Damp=F
 DIIS: error= 3.46D-08 at cycle  17 NSaved=  17.
 NSaved=17 IEnMin=16 EnMin= -305.909236928069     IErMin=17 ErrMin= 3.46D-08
 ErrMax= 3.46D-08  0.00D+00 EMaxC= 1.00D-01 BMatC= 1.12D-12 BMatP= 9.02D-12
 IDIUse=1 WtCom= 1.00D+00 WtEn= 0.00D+00
 Coeff-Com: -0.182D-05 0.399D-05 0.145D-04 0.272D-04 0.393D-05-0.168D-03
 Coeff-Com: -0.220D-03 0.691D-03 0.101D-02-0.188D-02-0.377D-02 0.484D-02
 Coeff-Com:  0.980D-02-0.807D-02-0.979D-01 0.525D-01 0.104D+01
 Coeff:     -0.182D-05 0.399D-05 0.145D-04 0.272D-04 0.393D-05-0.168D-03
 Coeff:     -0.220D-03 0.691D-03 0.101D-02-0.188D-02-0.377D-02 0.484D-02
 Coeff:      0.980D-02-0.807D-02-0.979D-01 0.525D-01 0.104D+01
 Gap=     0.373 Goal=   None    Shift=    0.000
 Gap=     0.286 Goal=   None    Shift=    0.000
 RMSDP=4.31D-09 MaxDP=1.34D-07 DE= 2.67D-12 OVMax= 4.81D-07

 SCF Done:  E(UM062X) =  -305.909236928     A.U. after   17 cycles
            NFock= 17  Conv=0.43D-08     -V/T= 2.0051
 <Sx>= 0.0000 <Sy>= 0.0000 <Sz>= 0.5000 <S**2>= 0.7555 S= 0.5028
 <L.S>= 0.000000000000E+00
 KE= 3.043465036582D+02 PE=-1.112342099492D+03 EE= 3.054689464118D+02
 Annihilation of the first spin contaminant:
 S**2 before annihilation     0.7555,   after     0.7500
 Leave Link  502 at Thu May 30 06:30:08 2019, MaxMem=   671088640 cpu:             610.7 elap:              30.6
 (Enter /shared/centos7/gaussian/g16/l601.exe)
 Copying SCF densities to generalized density rwf, IOpCl= 1 IROHF=0.

 **********************************************************************

            Population analysis using the SCF density.

 **********************************************************************

 Orbital symmetries:
 Alpha Orbitals:
       Occupied  (A) (A) (A) (A) (A) (A) (A) (A) (A) (A) (A) (A)
                 (A) (A) (A) (A) (A) (A) (A) (A) (A) (A)
       Virtual   (A) (A) (A) (A) (A) (A) (A) (A) (A) (A) (A) (A)
                 (A) (A) (A) (A) (A) (A) (A) (A) (A) (A) (A) (A)
                 (A) (A) (A) (A) (A) (A) (A) (A) (A) (A) (A) (A)
                 (A) (A) (A) (A) (A) (A) (A) (A) (A) (A) (A) (A)
                 (A) (A) (A) (A) (A) (A) (A) (A) (A) (A) (A) (A)
                 (A) (A) (A) (A) (A) (A) (A) (A) (A) (A) (A) (A)
                 (A) (A) (A) (A) (A) (A) (A) (A) (A) (A) (A) (A)
                 (A) (A) (A) (A) (A) (A) (A) (A) (A) (A) (A) (A)
                 (A) (A) (A) (A) (A) (A) (A) (A) (A) (A) (A) (A)
                 (A) (A) (A) (A) (A) (A) (A) (A) (A) (A) (A) (A)
                 (A) (A) (A) (A) (A) (A) (A) (A) (A) (A) (A) (A)
                 (A) (A) (A) (A) (A) (A) (A) (A) (A) (A) (A) (A)
                 (A) (A) (A) (A) (A) (A) (A) (A) (A) (A) (A) (A)
                 (A) (A) (A) (A) (A) (A) (A) (A) (A) (A) (A) (A)
                 (A) (A) (A) (A) (A) (A) (A) (A) (A) (A) (A) (A)
                 (A) (A) (A) (A) (A) (A) (A) (A) (A) (A) (A) (A)
                 (A) (A) (A) (A) (A) (A) (A) (A) (A) (A) (A) (A)
                 (A) (A) (A) (A) (A) (A) (A) (A) (A) (A) (A) (A)
                 (A) (A) (A) (A) (A) (A) (A) (A) (A) (A)
 Beta  Orbitals:
       Occupied  (A) (A) (A) (A) (A) (A) (A) (A) (A) (A) (A) (A)
                 (A) (A) (A) (A) (A) (A) (A) (A) (A)
       Virtual   (A) (A) (A) (A) (A) (A) (A) (A) (A) (A) (A) (A)
                 (A) (A) (A) (A) (A) (A) (A) (A) (A) (A) (A) (A)
                 (A) (A) (A) (A) (A) (A) (A) (A) (A) (A) (A) (A)
                 (A) (A) (A) (A) (A) (A) (A) (A) (A) (A) (A) (A)
                 (A) (A) (A) (A) (A) (A) (A) (A) (A) (A) (A) (A)
                 (A) (A) (A) (A) (A) (A) (A) (A) (A) (A) (A) (A)
                 (A) (A) (A) (A) (A) (A) (A) (A) (A) (A) (A) (A)
                 (A) (A) (A) (A) (A) (A) (A) (A) (A) (A) (A) (A)
                 (A) (A) (A) (A) (A) (A) (A) (A) (A) (A) (A) (A)
                 (A) (A) (A) (A) (A) (A) (A) (A) (A) (A) (A) (A)
                 (A) (A) (A) (A) (A) (A) (A) (A) (A) (A) (A) (A)
                 (A) (A) (A) (A) (A) (A) (A) (A) (A) (A) (A) (A)
                 (A) (A) (A) (A) (A) (A) (A) (A) (A) (A) (A) (A)
                 (A) (A) (A) (A) (A) (A) (A) (A) (A) (A) (A) (A)
                 (A) (A) (A) (A) (A) (A) (A) (A) (A) (A) (A) (A)
                 (A) (A) (A) (A) (A) (A) (A) (A) (A) (A) (A) (A)
                 (A) (A) (A) (A) (A) (A) (A) (A) (A) (A) (A) (A)
                 (A) (A) (A) (A) (A) (A) (A) (A) (A) (A) (A) (A)
                 (A) (A) (A) (A) (A) (A) (A) (A) (A) (A) (A)
 The electronic state is 2-A.
 Alpha  occ. eigenvalues --  -19.72062 -19.70304 -19.64512 -10.59514 -10.53357
 Alpha  occ. eigenvalues --   -1.32790  -1.16605  -0.98400  -0.84828  -0.72002
 Alpha  occ. eigenvalues --   -0.65463  -0.61460  -0.57288  -0.56422  -0.53878
 Alpha  occ. eigenvalues --   -0.51607  -0.45068  -0.44198  -0.41065  -0.38186
 Alpha  occ. eigenvalues --   -0.36891  -0.32287
 Alpha virt. eigenvalues --    0.04967   0.09176   0.09537   0.11963   0.14478
 Alpha virt. eigenvalues --    0.14825   0.17983   0.20050   0.22751   0.26055
 Alpha virt. eigenvalues --    0.28277   0.30828   0.36139   0.36760   0.38516
 Alpha virt. eigenvalues --    0.39748   0.44233   0.45723   0.46065   0.47685
 Alpha virt. eigenvalues --    0.49163   0.50676   0.51752   0.52662   0.56688
 Alpha virt. eigenvalues --    0.58137   0.59549   0.61550   0.62202   0.65346
 Alpha virt. eigenvalues --    0.68721   0.71761   0.72317   0.75902   0.77102
 Alpha virt. eigenvalues --    0.79879   0.83640   0.85903   0.89172   0.90509
 Alpha virt. eigenvalues --    0.95049   0.96050   0.99788   1.02619   1.06126
 Alpha virt. eigenvalues --    1.08504   1.11191   1.12909   1.13426   1.16372
 Alpha virt. eigenvalues --    1.17248   1.18315   1.21343   1.23431   1.26019
 Alpha virt. eigenvalues --    1.30447   1.32055   1.33036   1.34899   1.36974
 Alpha virt. eigenvalues --    1.40547   1.41268   1.46702   1.48265   1.51366
 Alpha virt. eigenvalues --    1.54668   1.55834   1.63296   1.64044   1.72828
 Alpha virt. eigenvalues --    1.77501   1.85225   1.95726   1.95770   1.98224
 Alpha virt. eigenvalues --    2.02610   2.06400   2.11278   2.12640   2.16727
 Alpha virt. eigenvalues --    2.24876   2.26359   2.30480   2.32745   2.35789
 Alpha virt. eigenvalues --    2.40293   2.40743   2.49590   2.50292   2.55164
 Alpha virt. eigenvalues --    2.58835   2.63587   2.63848   2.72192   2.73966
 Alpha virt. eigenvalues --    2.83852   2.84869   2.88513   2.91702   2.93871
 Alpha virt. eigenvalues --    2.94591   2.96149   2.98636   3.02935   3.04443
 Alpha virt. eigenvalues --    3.07951   3.10807   3.12133   3.14910   3.17646
 Alpha virt. eigenvalues --    3.21108   3.24442   3.26954   3.28746   3.29644
 Alpha virt. eigenvalues --    3.30927   3.34986   3.39277   3.39735   3.43648
 Alpha virt. eigenvalues --    3.45698   3.46989   3.49282   3.54272   3.56517
 Alpha virt. eigenvalues --    3.57886   3.62883   3.65064   3.68831   3.72462
 Alpha virt. eigenvalues --    3.73484   3.74927   3.75934   3.78430   3.79748
 Alpha virt. eigenvalues --    3.81894   3.82208   3.83166   3.85717   3.87459
 Alpha virt. eigenvalues --    3.90534   3.93597   3.94173   3.96890   3.98831
 Alpha virt. eigenvalues --    4.00307   4.03762   4.06442   4.11003   4.12125
 Alpha virt. eigenvalues --    4.14475   4.16256   4.18872   4.22500   4.24306
 Alpha virt. eigenvalues --    4.26980   4.29889   4.34540   4.35541   4.40306
 Alpha virt. eigenvalues --    4.52525   4.55899   4.57463   4.62248   4.65072
 Alpha virt. eigenvalues --    4.70104   4.71971   4.74877   4.77254   4.83981
 Alpha virt. eigenvalues --    4.84963   4.88311   4.92257   4.93044   4.94314
 Alpha virt. eigenvalues --    5.00670   5.05362   5.06944   5.09187   5.11354
 Alpha virt. eigenvalues --    5.13958   5.18634   5.27523   5.32831   5.36915
 Alpha virt. eigenvalues --    5.38776   5.51916   5.54114   5.56055   5.67416
 Alpha virt. eigenvalues --    5.72907   5.75186   5.83556   5.86648   5.96884
 Alpha virt. eigenvalues --    6.03392   6.16925   6.20079   6.27237   6.30684
 Alpha virt. eigenvalues --    6.32887   6.37332   6.40408   6.44382   6.48164
 Alpha virt. eigenvalues --    6.56542   6.57712   6.61795   6.63625   6.67225
 Alpha virt. eigenvalues --    6.77988   6.82622   6.85872   6.87525   7.01633
 Alpha virt. eigenvalues --    7.15864   7.21471   7.30122   7.31575   7.32754
 Alpha virt. eigenvalues --    7.62280   9.71168  11.62816  11.84912  12.28469
 Alpha virt. eigenvalues --   13.00730
  Beta  occ. eigenvalues --  -19.71500 -19.68884 -19.64512 -10.59521 -10.53132
  Beta  occ. eigenvalues --   -1.29875  -1.16589  -0.94377  -0.84191  -0.71321
  Beta  occ. eigenvalues --   -0.63655  -0.58796  -0.55314  -0.53796  -0.53012
  Beta  occ. eigenvalues --   -0.49643  -0.44311  -0.42073  -0.39296  -0.35959
  Beta  occ. eigenvalues --   -0.35197
  Beta virt. eigenvalues --   -0.06555   0.05025   0.09280   0.09681   0.11995
  Beta virt. eigenvalues --    0.14559   0.14949   0.18654   0.20392   0.23272
  Beta virt. eigenvalues --    0.26418   0.28666   0.31159   0.36316   0.36818
  Beta virt. eigenvalues --    0.38777   0.40005   0.44300   0.45739   0.46229
  Beta virt. eigenvalues --    0.47954   0.49439   0.50929   0.52007   0.53802
  Beta virt. eigenvalues --    0.57314   0.58334   0.59748   0.61797   0.62600
  Beta virt. eigenvalues --    0.65712   0.68786   0.72400   0.72865   0.76084
  Beta virt. eigenvalues --    0.77564   0.80241   0.83758   0.86332   0.89508
  Beta virt. eigenvalues --    0.90665   0.95182   0.96225   1.00033   1.02723
  Beta virt. eigenvalues --    1.06360   1.08820   1.11238   1.13163   1.13490
  Beta virt. eigenvalues --    1.16525   1.17511   1.18781   1.21516   1.23513
  Beta virt. eigenvalues --    1.26433   1.30672   1.32218   1.33290   1.35203
  Beta virt. eigenvalues --    1.37448   1.40794   1.41545   1.47107   1.48872
  Beta virt. eigenvalues --    1.51617   1.55227   1.55960   1.63603   1.64814
  Beta virt. eigenvalues --    1.73750   1.78053   1.85897   1.95930   1.96105
  Beta virt. eigenvalues --    1.98627   2.03361   2.06691   2.11528   2.13501
  Beta virt. eigenvalues --    2.17252   2.25475   2.26892   2.30913   2.33010
  Beta virt. eigenvalues --    2.35926   2.40535   2.41203   2.49917   2.50639
  Beta virt. eigenvalues --    2.55462   2.58964   2.63835   2.64182   2.72382
  Beta virt. eigenvalues --    2.74137   2.84192   2.85090   2.88759   2.92070
  Beta virt. eigenvalues --    2.94096   2.94897   2.96474   2.98677   3.03350
  Beta virt. eigenvalues --    3.05068   3.08355   3.10879   3.12472   3.15312
  Beta virt. eigenvalues --    3.17899   3.21608   3.24668   3.27163   3.28976
  Beta virt. eigenvalues --    3.29816   3.31439   3.35134   3.39175   3.39821
  Beta virt. eigenvalues --    3.43906   3.45855   3.47269   3.49162   3.54330
  Beta virt. eigenvalues --    3.56781   3.58094   3.63036   3.65739   3.69112
  Beta virt. eigenvalues --    3.72513   3.73645   3.75237   3.76405   3.78462
  Beta virt. eigenvalues --    3.80010   3.82136   3.82569   3.83521   3.85784
  Beta virt. eigenvalues --    3.87509   3.90487   3.93877   3.94314   3.96969
  Beta virt. eigenvalues --    3.99043   4.00469   4.03432   4.06583   4.11483
  Beta virt. eigenvalues --    4.12285   4.14810   4.16665   4.18833   4.22828
  Beta virt. eigenvalues --    4.24308   4.26851   4.30087   4.34761   4.35970
  Beta virt. eigenvalues --    4.40575   4.53464   4.56069   4.57779   4.62591
  Beta virt. eigenvalues --    4.65124   4.70145   4.72342   4.75095   4.77527
  Beta virt. eigenvalues --    4.84237   4.85559   4.88756   4.93014   4.93568
  Beta virt. eigenvalues --    4.95302   5.00919   5.05988   5.07647   5.09933
  Beta virt. eigenvalues --    5.11350   5.14444   5.18740   5.27684   5.33128
  Beta virt. eigenvalues --    5.37057   5.39185   5.53432   5.54304   5.57117
  Beta virt. eigenvalues --    5.68156   5.73390   5.76021   5.83854   5.87367
  Beta virt. eigenvalues --    5.96973   6.04442   6.17262   6.21532   6.28606
  Beta virt. eigenvalues --    6.33075   6.36733   6.37679   6.42270   6.46158
  Beta virt. eigenvalues --    6.54012   6.56886   6.59849   6.64589   6.65555
  Beta virt. eigenvalues --    6.67452   6.78123   6.83476   6.85895   6.90727
  Beta virt. eigenvalues --    7.01973   7.16022   7.21661   7.31075   7.32812
  Beta virt. eigenvalues --    7.35198   7.63588   9.72617  11.62896  11.85243
  Beta virt. eigenvalues --   12.28502  13.00864
          Condensed to atoms (all electrons):
               1          2          3          4          5          6
     1  O    7.964205  -0.022425   0.002198   0.259690  -0.047393  -0.040032
     2  O   -0.022425   7.836375   0.055521   0.016031  -0.005904   0.000397
     3  O    0.002198   0.055521   8.140249  -0.005994  -0.081955  -0.000202
     4  C    0.259690   0.016031  -0.005994   4.817618   0.310209   0.421395
     5  C   -0.047393  -0.005904  -0.081955   0.310209   5.206944  -0.052398
     6  H   -0.040032   0.000397  -0.000202   0.421395  -0.052398   0.620439
     7  H   -0.036998   0.005535  -0.000306   0.399147  -0.051970  -0.046359
     8  H   -0.004485   0.000768  -0.000240  -0.037776   0.379437  -0.006924
     9  H    0.005818   0.000106   0.002489  -0.033912   0.361782  -0.001508
    10  H    0.307012   0.000716   0.000375  -0.039040  -0.008798  -0.008823
    11  H    0.038292   0.300374  -0.036421  -0.002726  -0.005036   0.001176
    12  H    0.001020  -0.019997   0.063746  -0.018044   0.368302   0.004025
               7          8          9         10         11         12
     1  O   -0.036998  -0.004485   0.005818   0.307012   0.038292   0.001020
     2  O    0.005535   0.000768   0.000106   0.000716   0.300374  -0.019997
     3  O   -0.000306  -0.000240   0.002489   0.000375  -0.036421   0.063746
     4  C    0.399147  -0.037776  -0.033912  -0.039040  -0.002726  -0.018044
     5  C   -0.051970   0.379437   0.361782  -0.008798  -0.005036   0.368302
     6  H   -0.046359  -0.006924  -0.001508  -0.008823   0.001176   0.004025
     7  H    0.592035   0.007965  -0.001438   0.010870  -0.006329  -0.005222
     8  H    0.007965   0.604260  -0.031234   0.007960  -0.000422  -0.020988
     9  H   -0.001438  -0.031234   0.613536  -0.000043   0.000009  -0.018702
    10  H    0.010870   0.007960  -0.000043   0.458794  -0.002972  -0.000613
    11  H   -0.006329  -0.000422   0.000009  -0.002972   0.421654   0.004932
    12  H   -0.005222  -0.020988  -0.018702  -0.000613   0.004932   0.456559
          Atomic-Atomic Spin Densities.
               1          2          3          4          5          6
     1  O   -0.000190  -0.000710   0.000614   0.001872  -0.001289  -0.002077
     2  O   -0.000710   0.291219  -0.113905  -0.000778   0.014696   0.000639
     3  O    0.000614  -0.113905   0.829024  -0.000870  -0.058393  -0.000914
     4  C    0.001872  -0.000778  -0.000870  -0.015711   0.001185   0.003713
     5  C   -0.001289   0.014696  -0.058393   0.001185   0.204446  -0.008037
     6  H   -0.002077   0.000639  -0.000914   0.003713  -0.008037   0.025182
     7  H    0.001134  -0.002533   0.000860   0.000975  -0.000422  -0.001970
     8  H    0.000560  -0.000605   0.002961  -0.000779   0.000352  -0.001098
     9  H    0.000042  -0.000629   0.002417   0.001343   0.000621  -0.002146
    10  H    0.000469  -0.000057   0.000034  -0.000369   0.000177  -0.000138
    11  H    0.000250   0.001399  -0.000283   0.000115   0.000093   0.000017
    12  H   -0.000624   0.009894  -0.030129   0.002806   0.034396   0.000969
               7          8          9         10         11         12
     1  O    0.001134   0.000560   0.000042   0.000469   0.000250  -0.000624
     2  O   -0.002533  -0.000605  -0.000629  -0.000057   0.001399   0.009894
     3  O    0.000860   0.002961   0.002417   0.000034  -0.000283  -0.030129
     4  C    0.000975  -0.000779   0.001343  -0.000369   0.000115   0.002806
     5  C   -0.000422   0.000352   0.000621   0.000177   0.000093   0.034396
     6  H   -0.001970  -0.001098  -0.002146  -0.000138   0.000017   0.000969
     7  H    0.003908  -0.000121   0.000299  -0.000041   0.000028   0.000195
     8  H   -0.000121  -0.009734   0.002548  -0.000080   0.000069  -0.000979
     9  H    0.000299   0.002548  -0.006072   0.000018   0.000033  -0.001394
    10  H   -0.000041  -0.000080   0.000018  -0.000185   0.000027   0.000037
    11  H    0.000028   0.000069   0.000033   0.000027  -0.009223  -0.001072
    12  H    0.000195  -0.000979  -0.001394   0.000037  -0.001072  -0.023496
 Mulliken charges and spin densities:
               1          2
     1  O   -0.426901   0.000053
     2  O   -0.167497   0.198630
     3  O   -0.139460   0.631417
     4  C   -0.086598  -0.006498
     5  C   -0.373221   0.187823
     6  H    0.108816   0.014140
     7  H    0.133071   0.002311
     8  H    0.101679  -0.006906
     9  H    0.103096  -0.002919
    10  H    0.274562  -0.000108
    11  H    0.287469  -0.008546
    12  H    0.184984  -0.009397
 Sum of Mulliken charges =  -0.00000   1.00000
 Mulliken charges and spin densities with hydrogens summed into heavy atoms:
               1          2
     1  O   -0.152339  -0.000056
     2  O    0.119973   0.190085
     3  O   -0.139460   0.631417
     4  C    0.155289   0.009953
     5  C    0.016539   0.168601
 Electronic spatial extent (au):  <R**2>=            487.9052
 Charge=             -0.0000 electrons
 Dipole moment (field-independent basis, Debye):
    X=             -2.0937    Y=             -0.1287    Z=             -0.8628  Tot=              2.2681
 Quadrupole moment (field-independent basis, Debye-Ang):
   XX=            -33.1216   YY=            -31.7071   ZZ=            -29.0551
   XY=             -2.4781   XZ=              0.9272   YZ=              1.3200
 Traceless Quadrupole moment (field-independent basis, Debye-Ang):
   XX=             -1.8270   YY=             -0.4125   ZZ=              2.2395
   XY=             -2.4781   XZ=              0.9272   YZ=              1.3200
 Octapole moment (field-independent basis, Debye-Ang**2):
  XXX=             -0.7217  YYY=             -5.6769  ZZZ=             -5.5803  XYY=              6.8002
  XXY=             -2.8108  XXZ=             -4.1987  XZZ=             -2.6136  YZZ=             -4.0687
  YYZ=             -0.6432  XYZ=             -0.4800
 Hexadecapole moment (field-independent basis, Debye-Ang**3):
 XXXX=           -338.2279 YYYY=           -186.1802 ZZZZ=            -66.9453 XXXY=              2.8740
 XXXZ=              3.7969 YYYX=             -5.1292 YYYZ=              2.4795 ZZZX=              8.8922
 ZZZY=              3.7639 XXYY=            -89.9070 XXZZ=            -64.1419 YYZZ=            -39.9387
 XXYZ=              4.8622 YYXZ=              0.2434 ZZXY=              4.2306
 N-N= 1.966174124941D+02 E-N=-1.112342098975D+03  KE= 3.043465036582D+02
                          Isotropic Fermi Contact Couplings
        Atom                 a.u.       MegaHertz       Gauss      10(-4) cm-1
     1  O(17)              0.00069      -0.41790      -0.14912      -0.13940
     2  O(17)              0.03020     -18.30939      -6.53325      -6.10736
     3  O(17)              0.15481     -93.84817     -33.48736     -31.30438
     4  C(13)             -0.00396      -4.44722      -1.58688      -1.48343
     5  C(13)              0.09673     108.74404      38.80258      36.27311
     6  H(1)               0.00654      29.22685      10.42887       9.74903
     7  H(1)               0.00284      12.71240       4.53610       4.24040
     8  H(1)              -0.00179      -8.00241      -2.85546      -2.66932
     9  H(1)               0.00072       3.20777       1.14461       1.07000
    10  H(1)              -0.00006      -0.27804      -0.09921      -0.09274
    11  H(1)              -0.00431     -19.26223      -6.87324      -6.42519
    12  H(1)              -0.01422     -63.57041     -22.68350     -21.20480
 --------------------------------------------------------
       Center         ----  Spin Dipole Couplings  ----
                      3XX-RR        3YY-RR        3ZZ-RR
 --------------------------------------------------------
     1   Atom        0.001478      0.000711     -0.002189
     2   Atom        0.671725     -0.302612     -0.369114
     3   Atom        1.946655     -1.022209     -0.924446
     4   Atom        0.013300     -0.006059     -0.007241
     5   Atom        0.245793     -0.120959     -0.124835
     6   Atom        0.005527     -0.001916     -0.003610
     7   Atom        0.002411     -0.003210      0.000799
     8   Atom        0.003804     -0.014486      0.010682
     9   Atom        0.000431      0.004732     -0.005163
    10   Atom        0.002880     -0.000750     -0.002130
    11   Atom       -0.003617      0.024282     -0.020665
    12   Atom        0.109876     -0.031900     -0.077976
 --------------------------------------------------------
                        XY            XZ            YZ
 --------------------------------------------------------
     1   Atom        0.003862      0.000307      0.003379
     2   Atom       -0.553939     -0.514783      0.284986
     3   Atom       -1.264899     -1.363028      0.517524
     4   Atom        0.005687      0.004039      0.000830
     5   Atom       -0.034827      0.000745     -0.000295
     6   Atom        0.001291     -0.002726     -0.000376
     7   Atom        0.001291     -0.005384     -0.004685
     8   Atom       -0.006419      0.009801     -0.006025
     9   Atom       -0.008665     -0.004682      0.015082
    10   Atom        0.003436      0.002998      0.002577
    11   Atom        0.028043      0.010734      0.022060
    12   Atom       -0.088033     -0.034404      0.019400
 --------------------------------------------------------


 ---------------------------------------------------------------------------------
              Anisotropic Spin Dipole Couplings in Principal Axis System
 ---------------------------------------------------------------------------------

       Atom             a.u.   MegaHertz   Gauss  10(-4) cm-1        Axes

              Baa    -0.0051     0.369     0.132     0.123  0.3382 -0.6311  0.6981
     1 O(17)  Bbb    -0.0007     0.052     0.019     0.017  0.6876 -0.3408 -0.6412
              Bcc     0.0058    -0.421    -0.150    -0.140  0.6426  0.6968  0.3187
 
              Baa    -0.6237    45.127    16.103    15.053  0.0537 -0.6095  0.7910
     2 O(17)  Bbb    -0.5254    38.014    13.564    12.680  0.5310  0.6883  0.4943
              Bcc     1.1490   -83.142   -29.667   -27.733  0.8456 -0.3935 -0.3606
 
              Baa    -1.4958   108.234    38.621    36.103  0.1390  0.8760 -0.4619
     3 O(17)  Bbb    -1.4639   105.928    37.798    35.334  0.4578  0.3568  0.8144
              Bcc     2.9597  -214.162   -76.418   -71.437  0.8781 -0.3246 -0.3514
 
              Baa    -0.0081    -1.089    -0.388    -0.363 -0.2704  0.3941  0.8784
     4 C(13)  Bbb    -0.0075    -1.003    -0.358    -0.335 -0.1553  0.8826 -0.4438
              Bcc     0.0156     2.092     0.746     0.698  0.9501  0.2564  0.1774
 
              Baa    -0.1249   -16.762    -5.981    -5.591  0.0275  0.3135  0.9492
     5 C(13)  Bbb    -0.1242   -16.661    -5.945    -5.558  0.0896  0.9450 -0.3147
              Bcc     0.2491    33.423    11.926    11.149  0.9956 -0.0937  0.0021
 
              Baa    -0.0044    -2.327    -0.830    -0.776  0.2647  0.0086  0.9643
     6 H(1)   Bbb    -0.0021    -1.137    -0.406    -0.379 -0.1545  0.9874  0.0336
              Bcc     0.0065     3.465     1.236     1.156  0.9519  0.1579 -0.2627
 
              Baa    -0.0068    -3.645    -1.301    -1.216  0.2683  0.7250  0.6344
     7 H(1)   Bbb    -0.0017    -0.897    -0.320    -0.299  0.7002 -0.5990  0.3885
              Bcc     0.0085     4.542     1.621     1.515 -0.6616 -0.3400  0.6683
 
              Baa    -0.0169    -9.000    -3.211    -3.002  0.2396  0.9628  0.1253
     8 H(1)   Bbb    -0.0029    -1.569    -0.560    -0.524  0.7817 -0.1147 -0.6131
              Bcc     0.0198    10.569     3.771     3.525  0.5759 -0.2448  0.7800
 
              Baa    -0.0162    -8.649    -3.086    -2.885 -0.0941 -0.6071  0.7890
     9 H(1)   Bbb    -0.0042    -2.254    -0.804    -0.752  0.8933  0.2983  0.3361
              Bcc     0.0204    10.903     3.890     3.637 -0.4394  0.7365  0.5143
 
              Baa    -0.0041    -2.206    -0.787    -0.736 -0.0901 -0.5439  0.8343
    10 H(1)   Bbb    -0.0025    -1.361    -0.485    -0.454 -0.6344  0.6771  0.3729
              Bcc     0.0067     3.566     1.273     1.190  0.7677  0.4957  0.4060
 
              Baa    -0.0297   -15.858    -5.658    -5.290  0.0571 -0.4028  0.9135
    11 H(1)   Bbb    -0.0204   -10.864    -3.877    -3.624  0.8710 -0.4271 -0.2428
              Bcc     0.0501    26.722     9.535     8.913  0.4880  0.8095  0.3265
 
              Baa    -0.0852   -45.434   -16.212   -15.155  0.0453 -0.2750  0.9604
    12 H(1)   Bbb    -0.0734   -39.177   -13.979   -13.068  0.4558  0.8611  0.2251
              Bcc     0.1586    84.611    30.191    28.223  0.8889 -0.4276 -0.1643
 

 ---------------------------------------------------------------------------------

 No NMR shielding tensors so no spin-rotation constants.
 Leave Link  601 at Thu May 30 06:30:09 2019, MaxMem=   671088640 cpu:               7.2 elap:               0.4
 (Enter /shared/centos7/gaussian/g16/l701.exe)
 ... and contract with generalized density number  0.
 Compute integral first derivatives.
 Leave Link  701 at Thu May 30 06:30:09 2019, MaxMem=   671088640 cpu:               4.9 elap:               0.3
 (Enter /shared/centos7/gaussian/g16/l702.exe)
 L702 exits ... SP integral derivatives will be done elsewhere.
 Leave Link  702 at Thu May 30 06:30:10 2019, MaxMem=   671088640 cpu:               0.6 elap:               0.3
 (Enter /shared/centos7/gaussian/g16/l703.exe)
 Integral derivatives from FoFJK, PRISM(SPDF).
 Compute integral first derivatives, UseDBF=F ICtDFT=           0.
 Calling FoFJK, ICntrl=      2127 FMM=F ISym2X=0 I1Cent= 0 IOpClX= 1 NMat=1 NMatS=1 NMatT=0.
 FoFJK:  IHMeth= 1 ICntrl=    2127 DoSepK=F KAlg= 0 I1Cent=           0 FoldK=F
 IRaf=         0 NMat=       1 IRICut=       1 DoRegI=T DoRafI=F ISym2E= 0 IDoP0=0 IntGTp=1.
 FoFCou: FMM=F IPFlag=           0 FMFlag=      100000 FMFlg1=         800
         NFxFlg=           0 DoJE=F BraDBF=F KetDBF=F FulRan=T
         wScrn=  0.000000 ICntrl=      2127 IOpCl=  1 I1Cent=           0 NGrid=           0
         NMat0=    1 NMatS0=      1 NMatT0=    0 NMatD0=    1 NMtDS0=    0 NMtDT0=    0
 Symmetry not used in FoFCou.
 Leave Link  703 at Thu May 30 06:30:15 2019, MaxMem=   671088640 cpu:             102.4 elap:               5.2
 (Enter /shared/centos7/gaussian/g16/l716.exe)
 Dipole        =-8.23711865D-01-5.06253781D-02-3.39459072D-01
 ***** Axes restored to original set *****
 -------------------------------------------------------------------
 Center     Atomic                   Forces (Hartrees/Bohr)
 Number     Number              X              Y              Z
 -------------------------------------------------------------------
      1        8          -0.011110543   -0.014631877   -0.031846755
      2        8          -0.021369056    0.006846538    0.002679181
      3        8          -0.013387714   -0.038728253    0.006893301
      4        6           0.021352588    0.015182584    0.010685626
      5        6           0.013199078    0.006104394   -0.004123089
      6        1          -0.001416553   -0.006458642    0.004486780
      7        1          -0.001248258   -0.001879004   -0.013053376
      8        1           0.000763003    0.002576465    0.010778099
      9        1          -0.010915206   -0.005206869   -0.002571230
     10        1          -0.003042943    0.004477211    0.028292674
     11        1           0.009729404   -0.001405992    0.008447700
     12        1           0.017446200    0.033123445   -0.020668911
 -------------------------------------------------------------------
 Cartesian Forces:  Max     0.038728253 RMS     0.014870062
 Leave Link  716 at Thu May 30 06:30:15 2019, MaxMem=   671088640 cpu:               0.4 elap:               0.0
 (Enter /shared/centos7/gaussian/g16/l103.exe)

 GradGradGradGradGradGradGradGradGradGradGradGradGradGradGradGradGradGrad
 Berny optimization.
 FormGI is forming the generalized inverse of G from B-inverse, IUseBI=4.
 Internal  Forces:  Max     0.045158118 RMS     0.010013149
 Search for a local minimum.
 Step number   1 out of a maximum of  100
 All quantities printed in internal units (Hartrees-Bohrs-Radians)
 RMS Force = .75351D-02 SwitMx=.10000D-02 MixMth= 1
 Mixed Optimization -- RFO/linear search
 Second derivative matrix not updated -- first step.
 ITU=  0
     Eigenvalues ---    0.00230   0.00230   0.00482   0.01682   0.02403
     Eigenvalues ---    0.04764   0.05055   0.05405   0.05886   0.11035
     Eigenvalues ---    0.11906   0.13609   0.14108   0.16000   0.16000
     Eigenvalues ---    0.16000   0.16000   0.22046   0.30226   0.32264
     Eigenvalues ---    0.32531   0.32556   0.32562   0.45494   0.48950
     Eigenvalues ---    0.49385   0.628771000.000001000.000001000.00000
     Eigenvalues --- 1000.000001000.000001000.000001000.000001000.00000
     Eigenvalues --- 1000.000001000.000001000.000001000.000001000.00000
     Eigenvalues --- 1000.000001000.000001000.000001000.00000
 RFO step:  Lambda=-8.36093109D-03 EMin= 2.30000000D-03
 Linear search not attempted -- first point.
 Iteration  1 RMS(Cart)=  0.14091684 RMS(Int)=  0.02680824
 Iteration  2 RMS(Cart)=  0.06664271 RMS(Int)=  0.00348881
 Iteration  3 RMS(Cart)=  0.00456181 RMS(Int)=  0.00021169
 Iteration  4 RMS(Cart)=  0.00002332 RMS(Int)=  0.00021135
 Iteration  5 RMS(Cart)=  0.00000000 RMS(Int)=  0.00021135
 Iteration  1 RMS(Cart)=  0.00000000 RMS(Int)=  0.00000000
 ITry= 1 IFail=0 DXMaxC= 7.43D-01 DCOld= 1.00D+10 DXMaxT= 3.00D-01 DXLimC= 3.00D+00 Rises=F
 Variable       Old X    -DE/DX   Delta X   Delta X   Delta X     New X
                                 (Linear)    (Quad)   (Total)
    R1        2.64707   0.01710   0.00000   0.03691   0.03691   2.68398
    R2        1.87640  -0.02861   0.00000  -0.05746  -0.05746   1.81894
    R3        2.48734   0.01680   0.00000   0.02636   0.02636   2.51370
    R4        1.87191  -0.01243   0.00000  -0.02476  -0.02476   1.84715
    R5        2.58163   0.04516   0.00000   0.00000   0.00000   2.58163
    R6        2.87515  -0.00581   0.00000  -0.01871  -0.01871   2.85644
    R7        2.09837  -0.00788   0.00000  -0.02360  -0.02360   2.07478
    R8        2.10363  -0.01319   0.00000  -0.03985  -0.03985   2.06378
    R9        2.09884  -0.01115   0.00000  -0.03341  -0.03341   2.06543
   R10        2.09828  -0.01233   0.00000  -0.03693  -0.03693   2.06135
   R11        2.18577  -0.00066   0.00000   0.00000   0.00000   2.18577
    A1        1.86435   0.00532   0.00000   0.03161   0.03161   1.89596
    A2        1.80713   0.00439   0.00000   0.02607   0.02607   1.83320
    A3        1.82081   0.00453   0.00000   0.02691   0.02691   1.84772
    A4        1.98744  -0.00638   0.00000  -0.02916  -0.02936   1.95808
    A5        1.91462   0.00324   0.00000   0.02726   0.02748   1.94211
    A6        1.86378  -0.00010   0.00000  -0.02173  -0.02213   1.84165
    A7        1.91050   0.00260   0.00000   0.02360   0.02367   1.93418
    A8        1.91568   0.00200   0.00000   0.00140   0.00082   1.91650
    A9        1.86769  -0.00116   0.00000  -0.00096  -0.00094   1.86675
   A10        1.94126   0.00020   0.00000  -0.00750  -0.00798   1.93328
   A11        1.92879   0.00235   0.00000   0.02340   0.02356   1.95236
   A12        1.91113  -0.00503   0.00000  -0.03331  -0.03352   1.87760
   A13        1.89740  -0.00069   0.00000   0.00264   0.00268   1.90009
   A14        1.87470   0.00061   0.00000  -0.01108  -0.01167   1.86303
   A15        1.90957   0.00259   0.00000   0.02576   0.02601   1.93557
   A16        2.55844   0.00663   0.00000   0.00000  -0.00000   2.55844
    D1       -0.95240  -0.00067   0.00000  -0.00990  -0.00955  -0.96195
    D2        1.19537   0.00064   0.00000   0.02083   0.02090   1.21627
    D3       -3.06966   0.00085   0.00000   0.02173   0.02130  -3.04836
    D4        1.54142  -0.00457   0.00000  -0.14121  -0.14121   1.40021
    D5       -1.26648  -0.00285   0.00000  -0.26716  -0.26716  -1.53364
    D6        0.93088   0.00120   0.00000   0.06257   0.06260   0.99347
    D7        3.04010   0.00205   0.00000   0.07671   0.07666   3.11675
    D8       -1.13840   0.00351   0.00000   0.10203   0.10174  -1.03666
    D9       -1.21914  -0.00047   0.00000   0.02982   0.03002  -1.18912
   D10        0.89008   0.00038   0.00000   0.04396   0.04408   0.93416
   D11        2.99477   0.00184   0.00000   0.06928   0.06916   3.06393
   D12        3.01902  -0.00175   0.00000   0.01635   0.01653   3.03555
   D13       -1.15495  -0.00090   0.00000   0.03050   0.03059  -1.12436
   D14        0.94974   0.00056   0.00000   0.05582   0.05568   1.00542
   D15        0.86787  -0.00253   0.00000  -0.14211  -0.14183   0.72603
   D16       -1.24228  -0.00023   0.00000  -0.10716  -0.10741  -1.34969
   D17        2.98421  -0.00116   0.00000  -0.11799  -0.11802   2.86620
         Item               Value     Threshold  Converged?
 Maximum Force            0.028608     0.002500     NO 
 RMS     Force            0.007535     0.001667     NO 
 Maximum Displacement     0.742631     0.010000     NO 
 RMS     Displacement     0.185616     0.006667     NO 
 Predicted change in Energy=-4.960194D-03
 Lowest energy point so far.  Saving SCF results.
 GradGradGradGradGradGradGradGradGradGradGradGradGradGradGradGradGradGrad

 Leave Link  103 at Thu May 30 06:30:15 2019, MaxMem=   671088640 cpu:               0.5 elap:               0.1
 (Enter /shared/centos7/gaussian/g16/l202.exe)
                          Input orientation:                          
 ---------------------------------------------------------------------
 Center     Atomic      Atomic             Coordinates (Angstroms)
 Number     Number       Type             X           Y           Z
 ---------------------------------------------------------------------
      1          8           0       -1.078719    3.493327   -2.889699
      2          8           0       -0.312619    1.493413   -0.815918
      3          8           0        0.210882    1.120412   -1.980492
      4          6           0        0.172175    4.013298   -2.462918
      5          6           0        1.321650    3.097625   -2.816575
      6          1           0        0.340657    5.022650   -2.860740
      7          1           0        0.094499    4.107534   -1.377663
      8          1           0        1.347978    2.906396   -3.892370
      9          1           0        2.281882    3.513584   -2.508642
     10          1           0       -1.030639    3.312732   -3.833922
     11          1           0       -0.976916    2.173624   -1.042778
     12          1           0        1.128694    2.079937   -2.301854
 ---------------------------------------------------------------------
                    Distance matrix (angstroms):
                    1          2          3          4          5
     1  O    0.000000
     2  O    2.981130   0.000000
     3  O    2.849641   1.330194   0.000000
     4  C    1.420299   3.049173   2.933091   0.000000
     5  C    2.433865   3.040881   2.417067   1.511563   0.000000
     6  H    2.086695   4.130809   4.002392   1.097926   2.161023
     7  H    2.009961   2.704613   3.049565   1.092104   2.143895
     8  H    2.690483   3.770764   2.852719   2.156636   1.092976
     9  H    3.382197   3.698357   3.208623   2.168564   1.090821
    10  H    0.962540   3.596363   3.127754   1.953767   2.571873
    11  H    2.272245   0.977468   1.843754   2.592606   3.046890
    12  H    2.686244   2.151604   1.366141   2.163043   1.156658
                    6          7          8          9         10
     6  H    0.000000
     7  H    1.759986   0.000000
     8  H    2.560759   3.055764   0.000000
     9  H    2.483869   2.533088   1.776389   0.000000
    10  H    2.398198   2.816177   2.413782   3.573445   0.000000
    11  H    3.627387   2.236087   3.749969   3.816283   3.015118
    12  H    3.097243   2.456591   1.805785   1.851472   2.920571
                   11         12
    11  H    0.000000
    12  H    2.455126   0.000000
 Stoichiometry    C2H7O3(2)
 Framework group  C1[X(C2H7O3)]
 Deg. of freedom    30
 Full point group                 C1      NOp   1
 RotChk:  IX=0 Diff= 1.08D-01
 Largest Abelian subgroup         C1      NOp   1
 Largest concise Abelian subgroup C1      NOp   1
                         Standard orientation:                         
 ---------------------------------------------------------------------
 Center     Atomic      Atomic             Coordinates (Angstroms)
 Number     Number       Type             X           Y           Z
 ---------------------------------------------------------------------
      1          8           0       -0.980740   -1.152973   -0.400016
      2          8           0        1.753811   -0.370848    0.493094
      3          8           0        1.418844    0.376188   -0.555309
      4          6           0       -1.282191   -0.087766    0.489765
      5          6           0       -0.773062    1.241760   -0.018145
      6          1           0       -2.358294   -0.038322    0.701888
      7          1           0       -0.783894   -0.340889    1.428019
      8          1           0       -1.180703    1.460169   -1.008460
      9          1           0       -1.029084    2.059482    0.656891
     10          1           0       -1.329454   -0.934763   -1.270226
     11          1           0        1.104141   -1.101117    0.502027
     12          1           0        0.373480    1.152547   -0.142004
 ---------------------------------------------------------------------
 Rotational constants (GHZ):           6.8031557           3.2504297           2.6678023
 Leave Link  202 at Thu May 30 06:30:15 2019, MaxMem=   671088640 cpu:               0.4 elap:               0.0
 (Enter /shared/centos7/gaussian/g16/l301.exe)
 Standard basis: CC-pVTZ (5D, 7F)
 Ernie: Thresh=  0.10000D-02 Tol=  0.10000D-05 Strict=F.
 Ernie:  15 primitive shells out of 186 were deleted.
 There are   280 symmetry adapted cartesian basis functions of A   symmetry.
 There are   248 symmetry adapted basis functions of A   symmetry.
   248 basis functions,   379 primitive gaussians,   280 cartesian basis functions
    22 alpha electrons       21 beta electrons
       nuclear repulsion energy       195.8260433448 Hartrees.
 IExCor= 4336 DFT=T Ex+Corr=M062X ExCW=0 ScaHFX=  0.540000
 ScaDFX=  1.000000  1.000000  1.000000  1.000000 ScalE2=  1.000000  1.000000
 IRadAn=      1 IRanWt=     -1 IRanGd=            0 ICorTp=0 IEmpDi=  4
 NAtoms=   12 NActive=   12 NUniq=   12 SFac= 1.00D+00 NAtFMM=   60 NAOKFM=F Big=F
 Integral buffers will be    131072 words long.
 Raffenetti 2 integral format.
 Two-electron integral symmetry is turned on.
 Leave Link  301 at Thu May 30 06:30:15 2019, MaxMem=   671088640 cpu:               1.9 elap:               0.1
 (Enter /shared/centos7/gaussian/g16/l302.exe)
 NPDir=0 NMtPBC=     1 NCelOv=     1 NCel=       1 NClECP=     1 NCelD=      1
         NCelK=      1 NCelE2=     1 NClLst=     1 CellRange=     0.0.
 One-electron integrals computed using PRISM.
 One-electron integral symmetry used in STVInt
 NBasis=   248 RedAO= T EigKep=  8.00D-04  NBF=   248
 NBsUse=   248 1.00D-06 EigRej= -1.00D+00 NBFU=   248
 Precomputing XC quadrature grid using
 IXCGrd= 4 IRadAn=           1 IRanWt=          -1 IRanGd=           0 AccXCQ= 0.00D+00.
 Generated NRdTot=       0 NPtTot=           0 NUsed=           0 NTot=          32
 NSgBfM=   280   280   280   280   280 MxSgAt=    12 MxSgA2=    12.
 Leave Link  302 at Thu May 30 06:30:15 2019, MaxMem=   671088640 cpu:               5.5 elap:               0.3
 (Enter /shared/centos7/gaussian/g16/l303.exe)
 DipDrv:  MaxL=1.
 Leave Link  303 at Thu May 30 06:30:15 2019, MaxMem=   671088640 cpu:               1.0 elap:               0.1
 (Enter /shared/centos7/gaussian/g16/l401.exe)
 Initial guess from the checkpoint file:  "/scratch/harms.n/gauss_scrdir/Gau-24677.chk"
 B after Tr=     0.000000   -0.000000    0.000000
         Rot=    0.999202    0.019941   -0.018142   -0.029468 Ang=   4.58 deg.
 Guess basis will be translated and rotated to current coordinates.
 JPrj=2 DoOrth=T DoCkMO=T.
 Initial guess <Sx>= 0.0000 <Sy>= 0.0000 <Sz>= 0.5000 <S**2>= 0.7556 S= 0.5028
 Generating alternative initial guess.
 ExpMin= 1.03D-01 ExpMax= 1.53D+04 ExpMxC= 5.22D+02 IAcc=1 IRadAn=         1 AccDes= 0.00D+00
 Harris functional with IExCor= 1009 and IRadAn=       1 diagonalized for initial guess.
 HarFok:  IExCor= 1009 AccDes= 0.00D+00 IRadAn=         1 IDoV= 1 UseB2=F ITyADJ=14
 ICtDFT=  3500011 ScaDFX=  1.000000  1.000000  1.000000  1.000000
 FoFCou: FMM=F IPFlag=           0 FMFlag=      100000 FMFlg1=           0
         NFxFlg=           0 DoJE=T BraDBF=F KetDBF=T FulRan=T
         wScrn=  0.000000 ICntrl=       500 IOpCl=  0 I1Cent=   200000004 NGrid=           0
         NMat0=    1 NMatS0=      1 NMatT0=    0 NMatD0=    1 NMtDS0=    0 NMtDT0=    0
 Petite list used in FoFCou.
 Harris En= -305.790228724874    
 Leave Link  401 at Thu May 30 06:30:16 2019, MaxMem=   671088640 cpu:              11.6 elap:               0.6
 (Enter /shared/centos7/gaussian/g16/l502.exe)
 Integral symmetry usage will be decided dynamically.
 UHF open shell SCF:
 Using DIIS extrapolation, IDIIS=  1040.
 NGot=   671088640 LenX=   670923676 LenY=   670844835
 Requested convergence on RMS density matrix=1.00D-08 within 900 cycles.
 Requested convergence on MAX density matrix=1.00D-06.
 Requested convergence on             energy=1.00D-06.
 No special actions if energy rises.
 Fock matrices will be formed incrementally for  20 cycles.

 Cycle   1  Pass 1  IDiag  1:
 FoFJK:  IHMeth= 1 ICntrl=       0 DoSepK=F KAlg= 0 I1Cent=           0 FoldK=F
 IRaf= 990000000 NMat=       1 IRICut=       1 DoRegI=T DoRafI=F ISym2E= 0 IDoP0=0 IntGTp=1.
 FoFCou: FMM=F IPFlag=           0 FMFlag=      100000 FMFlg1=           0
         NFxFlg=           0 DoJE=F BraDBF=F KetDBF=F FulRan=T
         wScrn=  0.000000 ICntrl=         0 IOpCl=  1 I1Cent=           0 NGrid=           0
         NMat0=    1 NMatS0=      1 NMatT0=    0 NMatD0=    1 NMtDS0=    0 NMtDT0=    0
 Symmetry not used in FoFCou.
 E= -305.824435189455    
 DIIS: error= 1.33D-02 at cycle   1 NSaved=   1.
 NSaved= 1 IEnMin= 1 EnMin= -305.824435189455     IErMin= 1 ErrMin= 1.33D-02
 ErrMax= 1.33D-02  0.00D+00 EMaxC= 1.00D-01 BMatC= 2.26D-01 BMatP= 2.26D-01
 IDIUse=3 WtCom= 8.67D-01 WtEn= 1.33D-01
 Coeff-Com:  0.100D+01
 Coeff-En:   0.100D+01
 Coeff:      0.100D+01
 Recover alternate guess density for next cycle.
 RMSDP=1.78D-03 MaxDP=5.14D-02              OVMax= 0.00D+00

 Cycle   2  Pass 1  IDiag  1:
 RMSU=  1.76D-03    CP:  9.76D-01
 E= -305.747546361248     Delta-E=        0.076888828206 Rises=F Damp=F
 Switch densities from cycles 1 and 2 for lowest energy.
 DIIS: error= 2.00D-02 at cycle   2 NSaved=   2.
 NSaved= 2 IEnMin= 1 EnMin= -305.824435189455     IErMin= 1 ErrMin= 1.33D-02
 ErrMax= 2.00D-02  0.00D+00 EMaxC= 1.00D+00 BMatC= 8.56D-01 BMatP= 2.26D-01
 IDIUse=1 WtCom= 1.00D+00 WtEn= 0.00D+00
 Coeff-Com:  0.795D+00 0.205D+00
 Coeff:      0.795D+00 0.205D+00
 Gap=     0.406 Goal=   None    Shift=    0.000
 Gap=     0.255 Goal=   None    Shift=    0.000
 RMSDP=9.95D-04 MaxDP=3.45D-02 DE= 7.69D-02 OVMax= 1.80D-01

 Cycle   3  Pass 1  IDiag  1:
 RMSU=  8.10D-04    CP:  9.93D-01  3.25D-01
 E= -305.899300564522     Delta-E=       -0.151754203274 Rises=F Damp=F
 DIIS: error= 4.37D-03 at cycle   3 NSaved=   3.
 NSaved= 3 IEnMin= 3 EnMin= -305.899300564522     IErMin= 3 ErrMin= 4.37D-03
 ErrMax= 4.37D-03  0.00D+00 EMaxC= 1.00D+00 BMatC= 3.05D-02 BMatP= 2.26D-01
 IDIUse=1 WtCom= 1.00D+00 WtEn= 0.00D+00
 Coeff-Com: -0.532D-01 0.138D+00 0.915D+00
 Coeff:     -0.532D-01 0.138D+00 0.915D+00
 Gap=     0.383 Goal=   None    Shift=    0.000
 Gap=     0.279 Goal=   None    Shift=    0.000
 RMSDP=3.36D-04 MaxDP=9.43D-03 DE=-1.52D-01 OVMax= 4.37D-02

 Cycle   4  Pass 1  IDiag  1:
 RMSU=  1.85D-04    CP:  9.91D-01  4.82D-01  9.39D-01
 E= -305.907288683228     Delta-E=       -0.007988118706 Rises=F Damp=F
 DIIS: error= 1.09D-03 at cycle   4 NSaved=   4.
 NSaved= 4 IEnMin= 4 EnMin= -305.907288683228     IErMin= 4 ErrMin= 1.09D-03
 ErrMax= 1.09D-03  0.00D+00 EMaxC= 1.00D+00 BMatC= 2.36D-03 BMatP= 3.05D-02
 IDIUse=1 WtCom= 1.00D+00 WtEn= 0.00D+00
 Coeff-Com: -0.393D-01 0.121D-01 0.225D+00 0.802D+00
 Coeff:     -0.393D-01 0.121D-01 0.225D+00 0.802D+00
 Gap=     0.380 Goal=   None    Shift=    0.000
 Gap=     0.278 Goal=   None    Shift=    0.000
 RMSDP=8.03D-05 MaxDP=2.09D-03 DE=-7.99D-03 OVMax= 1.03D-02

 Cycle   5  Pass 1  IDiag  1:
 RMSU=  6.80D-05    CP:  9.91D-01  4.89D-01  9.89D-01  1.03D+00
 E= -305.907814576610     Delta-E=       -0.000525893382 Rises=F Damp=F
 DIIS: error= 4.72D-04 at cycle   5 NSaved=   5.
 NSaved= 5 IEnMin= 5 EnMin= -305.907814576610     IErMin= 5 ErrMin= 4.72D-04
[...]
 Alpha virt. eigenvalues --    3.47070   3.47878   3.51177   3.52887   3.58637
 Alpha virt. eigenvalues --    3.59766   3.63789   3.67414   3.70138   3.73132
 Alpha virt. eigenvalues --    3.73930   3.76297   3.77142   3.78832   3.80876
 Alpha virt. eigenvalues --    3.84269   3.85625   3.87650   3.88563   3.89477
 Alpha virt. eigenvalues --    3.91662   3.95472   3.97424   3.98944   4.01234
 Alpha virt. eigenvalues --    4.04113   4.05569   4.07001   4.12451   4.14795
 Alpha virt. eigenvalues --    4.17367   4.18669   4.20695   4.25220   4.26466
 Alpha virt. eigenvalues --    4.27969   4.32626   4.36034   4.38231   4.43565
 Alpha virt. eigenvalues --    4.54169   4.59123   4.60705   4.62708   4.70600
 Alpha virt. eigenvalues --    4.72647   4.76163   4.78445   4.80649   4.83915
 Alpha virt. eigenvalues --    4.86614   4.91007   4.93612   4.94749   4.97299
 Alpha virt. eigenvalues --    5.02567   5.08092   5.10083   5.11407   5.15096
 Alpha virt. eigenvalues --    5.16849   5.25208   5.32326   5.35746   5.38767
 Alpha virt. eigenvalues --    5.43237   5.50939   5.53774   5.55677   5.66291
 Alpha virt. eigenvalues --    5.72486   5.74782   5.82744   5.87954   5.94856
 Alpha virt. eigenvalues --    6.02728   6.17906   6.20343   6.27749   6.31659
 Alpha virt. eigenvalues --    6.33525   6.41142   6.43817   6.45160   6.50023
 Alpha virt. eigenvalues --    6.56960   6.60914   6.63720   6.66834   6.71523
 Alpha virt. eigenvalues --    6.79567   6.83120   6.86910   6.89521   7.06308
 Alpha virt. eigenvalues --    7.14929   7.19490   7.29532   7.31489   7.39602
 Alpha virt. eigenvalues --    7.59771   9.72332  11.67930  12.04293  12.36313
 Alpha virt. eigenvalues --   13.27864
  Beta  occ. eigenvalues --  -19.70940 -19.68883 -19.64456 -10.59645 -10.53018
  Beta  occ. eigenvalues --   -1.28731  -1.16524  -0.94605  -0.85154  -0.72238
  Beta  occ. eigenvalues --   -0.63850  -0.58280  -0.54961  -0.54214  -0.53283
  Beta  occ. eigenvalues --   -0.49272  -0.44780  -0.42616  -0.39944  -0.36430
  Beta  occ. eigenvalues --   -0.35289
  Beta virt. eigenvalues --   -0.06817   0.05502   0.09238   0.09855   0.12235
  Beta virt. eigenvalues --    0.14529   0.15555   0.18502   0.19748   0.23008
  Beta virt. eigenvalues --    0.26424   0.28465   0.30173   0.35884   0.36532
  Beta virt. eigenvalues --    0.38431   0.40840   0.44726   0.45752   0.46624
  Beta virt. eigenvalues --    0.48055   0.49673   0.51242   0.52464   0.54327
  Beta virt. eigenvalues --    0.57630   0.58046   0.59634   0.61696   0.62928
  Beta virt. eigenvalues --    0.65870   0.69202   0.73232   0.73572   0.78220
  Beta virt. eigenvalues --    0.79455   0.81217   0.83877   0.86176   0.89273
  Beta virt. eigenvalues --    0.91868   0.96133   0.96424   1.00873   1.02053
  Beta virt. eigenvalues --    1.05362   1.09427   1.10743   1.13319   1.14436
  Beta virt. eigenvalues --    1.16788   1.18064   1.19324   1.21643   1.23485
  Beta virt. eigenvalues --    1.24970   1.31502   1.32143   1.34663   1.35870
  Beta virt. eigenvalues --    1.38291   1.42134   1.42593   1.46234   1.50129
  Beta virt. eigenvalues --    1.52585   1.57755   1.58564   1.63925   1.70301
  Beta virt. eigenvalues --    1.72957   1.75142   1.87188   1.93473   1.96148
  Beta virt. eigenvalues --    2.00701   2.03259   2.09006   2.10256   2.10904
  Beta virt. eigenvalues --    2.17425   2.24901   2.27339   2.30196   2.31800
  Beta virt. eigenvalues --    2.36664   2.39052   2.42560   2.51574   2.52295
  Beta virt. eigenvalues --    2.54812   2.58950   2.63921   2.65793   2.73400
  Beta virt. eigenvalues --    2.75230   2.83600   2.84671   2.88093   2.92442
  Beta virt. eigenvalues --    2.94712   2.95683   2.97139   3.00262   3.04628
  Beta virt. eigenvalues --    3.05606   3.09398   3.11656   3.12990   3.14768
  Beta virt. eigenvalues --    3.17377   3.21340   3.25993   3.27890   3.29372
  Beta virt. eigenvalues --    3.30486   3.33189   3.36610   3.40727   3.41944
  Beta virt. eigenvalues --    3.45011   3.47443   3.48002   3.51154   3.53010
  Beta virt. eigenvalues --    3.58575   3.60185   3.64122   3.68067   3.70462
  Beta virt. eigenvalues --    3.73288   3.74231   3.76608   3.77256   3.78948
  Beta virt. eigenvalues --    3.81578   3.84609   3.85604   3.87799   3.88618
  Beta virt. eigenvalues --    3.89709   3.91493   3.95779   3.97805   3.99116
  Beta virt. eigenvalues --    4.01407   4.04206   4.05562   4.07072   4.12664
  Beta virt. eigenvalues --    4.14953   4.17390   4.19328   4.20996   4.25132
  Beta virt. eigenvalues --    4.26546   4.28006   4.32872   4.36200   4.38342
  Beta virt. eigenvalues --    4.44027   4.54958   4.59601   4.60747   4.62939
  Beta virt. eigenvalues --    4.70728   4.72902   4.76436   4.78755   4.80840
  Beta virt. eigenvalues --    4.84205   4.87079   4.91374   4.94080   4.95791
  Beta virt. eigenvalues --    4.98066   5.02929   5.08918   5.10650   5.11881
  Beta virt. eigenvalues --    5.15483   5.17528   5.25359   5.32575   5.36200
  Beta virt. eigenvalues --    5.38916   5.43759   5.52324   5.54019   5.56325
  Beta virt. eigenvalues --    5.67054   5.72813   5.75650   5.83036   5.88854
  Beta virt. eigenvalues --    5.95030   6.03747   6.18153   6.21838   6.30202
  Beta virt. eigenvalues --    6.33265   6.37064   6.42568   6.46817   6.48586
  Beta virt. eigenvalues --    6.52857   6.59705   6.63252   6.65550   6.66881
  Beta virt. eigenvalues --    6.71741   6.80254   6.83770   6.86981   6.92099
  Beta virt. eigenvalues --    7.06565   7.15108   7.19637   7.30830   7.34793
  Beta virt. eigenvalues --    7.39713   7.61050   9.73870  11.68322  12.04333
  Beta virt. eigenvalues --   12.36341  13.28029
          Condensed to atoms (all electrons):
               1          2          3          4          5          6
     1  O    7.971909  -0.031215   0.001717   0.247042  -0.045413  -0.032549
     2  O   -0.031215   7.829239   0.063675   0.016446  -0.003755   0.000315
     3  O    0.001717   0.063675   8.136229  -0.007715  -0.081827  -0.000164
     4  C    0.247042   0.016446  -0.007715   4.829628   0.309099   0.419789
     5  C   -0.045413  -0.003755  -0.081827   0.309099   5.191607  -0.046400
     6  H   -0.032549   0.000315  -0.000164   0.419789  -0.046400   0.595829
     7  H   -0.039858   0.006153  -0.000533   0.404063  -0.051565  -0.046453
     8  H   -0.004564   0.000688  -0.000131  -0.037234   0.382256  -0.008266
     9  H    0.006095  -0.000057   0.002609  -0.036292   0.367700  -0.000886
    10  H    0.304651   0.000957   0.001882  -0.033236  -0.006513  -0.006474
    11  H    0.051272   0.303065  -0.035797  -0.003360  -0.004695   0.001296
    12  H    0.002038  -0.017619   0.062925  -0.018216   0.367585   0.004263
               7          8          9         10         11         12
     1  O   -0.039858  -0.004564   0.006095   0.304651   0.051272   0.002038
     2  O    0.006153   0.000688  -0.000057   0.000957   0.303065  -0.017619
     3  O   -0.000533  -0.000131   0.002609   0.001882  -0.035797   0.062925
     4  C    0.404063  -0.037234  -0.036292  -0.033236  -0.003360  -0.018216
     5  C   -0.051565   0.382256   0.367700  -0.006513  -0.004695   0.367585
     6  H   -0.046453  -0.008266  -0.000886  -0.006474   0.001296   0.004263
     7  H    0.587674   0.008513  -0.003018   0.010147  -0.007074  -0.005412
     8  H    0.008513   0.600176  -0.033028   0.006613  -0.000478  -0.022998
     9  H   -0.003018  -0.033028   0.605899  -0.000030  -0.000064  -0.017345
    10  H    0.010147   0.006613  -0.000030   0.457421  -0.004917  -0.001048
    11  H   -0.007074  -0.000478  -0.000064  -0.004917   0.413631   0.005241
    12  H   -0.005412  -0.022998  -0.017345  -0.001048   0.005241   0.456977
          Atomic-Atomic Spin Densities.
               1          2          3          4          5          6
     1  O    0.000261  -0.000749   0.001222   0.001700  -0.001827  -0.002083
     2  O   -0.000749   0.290474  -0.109890  -0.001201   0.013124   0.000495
     3  O    0.001222  -0.109890   0.824842  -0.001288  -0.056969  -0.000934
     4  C    0.001700  -0.001201  -0.001288  -0.017342   0.003259   0.002839
     5  C   -0.001827   0.013124  -0.056969   0.003259   0.207320  -0.007482
     6  H   -0.002083   0.000495  -0.000934   0.002839  -0.007482   0.022960
     7  H    0.000987  -0.001531   0.000352   0.000685   0.000037  -0.001386
     8  H    0.000638  -0.000519   0.002968  -0.001050   0.000073  -0.001264
     9  H    0.000028  -0.000486   0.002159   0.001451   0.001069  -0.001676
    10  H    0.000305   0.000059  -0.000393  -0.000074  -0.000019   0.000033
    11  H    0.000339   0.001199  -0.000360   0.000199   0.000102   0.000051
    12  H   -0.000697   0.008000  -0.026641   0.002843   0.032220   0.000865
               7          8          9         10         11         12
     1  O    0.000987   0.000638   0.000028   0.000305   0.000339  -0.000697
     2  O   -0.001531  -0.000519  -0.000486   0.000059   0.001199   0.008000
     3  O    0.000352   0.002968   0.002159  -0.000393  -0.000360  -0.026641
     4  C    0.000685  -0.001050   0.001451  -0.000074   0.000199   0.002843
     5  C    0.000037   0.000073   0.001069  -0.000019   0.000102   0.032220
     6  H   -0.001386  -0.001264  -0.001676   0.000033   0.000051   0.000865
     7  H    0.002435  -0.000205   0.000118  -0.000061  -0.000019   0.000517
     8  H   -0.000205  -0.008321   0.002637  -0.000111   0.000072  -0.001119
     9  H    0.000118   0.002637  -0.009143  -0.000032   0.000021  -0.000613
    10  H   -0.000061  -0.000111  -0.000032  -0.000022   0.000064   0.000219
    11  H   -0.000019   0.000072   0.000021   0.000064  -0.008880  -0.000904
    12  H    0.000517  -0.001119  -0.000613   0.000219  -0.000904  -0.027315
 Mulliken charges and spin densities:
               1          2
     1  O   -0.431123   0.000124
     2  O   -0.167891   0.198975
     3  O   -0.142870   0.635068
     4  C   -0.090012  -0.007978
     5  C   -0.378078   0.190907
     6  H    0.119700   0.012417
     7  H    0.137364   0.001927
     8  H    0.108454  -0.006202
     9  H    0.108418  -0.004467
    10  H    0.270548  -0.000030
    11  H    0.281881  -0.008116
    12  H    0.183609  -0.012625
 Sum of Mulliken charges =  -0.00000   1.00000
 Mulliken charges and spin densities with hydrogens summed into heavy atoms:
               1          2
     1  O   -0.160575   0.000094
     2  O    0.113990   0.190859
     3  O   -0.142870   0.635068
     4  C    0.167052   0.006366
     5  C    0.022403   0.167613
 Electronic spatial extent (au):  <R**2>=            478.8208
 Charge=             -0.0000 electrons
 Dipole moment (field-independent basis, Debye):
    X=             -2.2760    Y=             -0.1381    Z=             -0.6819  Tot=              2.3800
 Quadrupole moment (field-independent basis, Debye-Ang):
   XX=            -33.3007   YY=            -32.0219   ZZ=            -28.7746
   XY=             -2.3970   XZ=              0.3494   YZ=              0.9947
 Traceless Quadrupole moment (field-independent basis, Debye-Ang):
   XX=             -1.9350   YY=             -0.6561   ZZ=              2.5911
   XY=             -2.3970   XZ=              0.3494   YZ=              0.9947
 Octapole moment (field-independent basis, Debye-Ang**2):
  XXX=             -0.4440  YYY=             -3.6752  ZZZ=             -5.8523  XYY=              6.1598
  XXY=             -2.8464  XXZ=             -2.6438  XZZ=             -1.7611  YZZ=             -4.2426
  YYZ=             -0.2078  XYZ=             -0.4455
 Hexadecapole moment (field-independent basis, Debye-Ang**3):
 XXXX=           -330.2821 YYYY=           -187.1746 ZZZZ=            -65.4958 XXXY=              3.7110
 XXXZ=             -0.2219 YYYX=             -5.0348 YYYZ=              1.6356 ZZZX=              6.7682
 ZZZY=              4.4312 XXYY=            -87.3764 XXZZ=            -64.8478 YYZZ=            -38.8331
 XXYZ=              3.0669 YYXZ=              0.6329 ZZXY=              3.2891
 N-N= 1.977390524408D+02 E-N=-1.114650941269D+03  KE= 3.044618748807D+02
                          Isotropic Fermi Contact Couplings
        Atom                 a.u.       MegaHertz       Gauss      10(-4) cm-1
     1  O(17)              0.00113      -0.68718      -0.24520      -0.22922
     2  O(17)              0.03333     -20.20473      -7.20955      -6.73957
     3  O(17)              0.15462     -93.73294     -33.44624     -31.26594
     4  C(13)             -0.00518      -5.81955      -2.07656      -1.94119
     5  C(13)              0.09636     108.32257      38.65219      36.13252
     6  H(1)               0.00568      25.41034       9.06704       8.47598
     7  H(1)               0.00214       9.54723       3.40669       3.18461
     8  H(1)              -0.00138      -6.17575      -2.20366      -2.06001
     9  H(1)               0.00025       1.11273       0.39705       0.37117
    10  H(1)              -0.00005      -0.22716      -0.08106      -0.07577
    11  H(1)              -0.00388     -17.36412      -6.19595      -5.79205
    12  H(1)              -0.01467     -65.58706     -23.40309     -21.87749
 --------------------------------------------------------
       Center         ----  Spin Dipole Couplings  ----
                      3XX-RR        3YY-RR        3ZZ-RR
 --------------------------------------------------------
     1   Atom        0.000538      0.002922     -0.003460
     2   Atom        0.538880     -0.301402     -0.237478
     3   Atom        1.682562     -1.099604     -0.582958
     4   Atom        0.010274     -0.004227     -0.006048
     5   Atom        0.247538     -0.123137     -0.124401
     6   Atom        0.005321     -0.001506     -0.003815
     7   Atom        0.002373     -0.002643      0.000269
     8   Atom        0.004879     -0.015374      0.010495
     9   Atom        0.001868      0.002245     -0.004113
    10   Atom        0.002624     -0.000149     -0.002474
    11   Atom       -0.002616      0.027246     -0.024630
    12   Atom        0.119522     -0.040083     -0.079439
 --------------------------------------------------------
                        XY            XZ            YZ
 --------------------------------------------------------
     1   Atom        0.003504     -0.001209      0.004416
     2   Atom       -0.518333     -0.632018      0.353704
     3   Atom       -1.109098     -1.665337      0.598468
     4   Atom        0.006616      0.003159      0.001421
     5   Atom       -0.011535     -0.003394     -0.000017
     6   Atom        0.002278     -0.002241     -0.000668
     7   Atom        0.001784     -0.005151     -0.004924
     8   Atom       -0.005509      0.009857     -0.006090
     9   Atom       -0.008663     -0.006059      0.015475
    10   Atom        0.004427      0.003536      0.003498
    11   Atom        0.030912      0.006452      0.016187
    12   Atom       -0.080658     -0.034584      0.015941
 --------------------------------------------------------


 ---------------------------------------------------------------------------------
              Anisotropic Spin Dipole Couplings in Principal Axis System
 ---------------------------------------------------------------------------------

       Atom             a.u.   MegaHertz   Gauss  10(-4) cm-1        Axes

              Baa    -0.0068     0.490     0.175     0.163  0.3665 -0.4921  0.7896
     1 O(17)  Bbb     0.0003    -0.025    -0.009    -0.008  0.8229 -0.2247 -0.5219
              Bcc     0.0064    -0.465    -0.166    -0.155  0.4342  0.8410  0.3226
 
              Baa    -0.6324    45.761    16.329    15.264  0.1730 -0.5798  0.7962
     2 O(17)  Bbb    -0.5276    38.180    13.623    12.735  0.5799  0.7134  0.3935
              Bcc     1.1601   -83.941   -29.952   -28.000  0.7961 -0.3936 -0.4597
 
              Baa    -1.4944   108.133    38.584    36.069  0.1057  0.9088 -0.4036
     3 O(17)  Bbb    -1.4611   105.727    37.726    35.267  0.5263  0.2933  0.7981
              Bcc     2.9555  -213.859   -76.310   -71.336  0.8437 -0.2968 -0.4473
 
              Baa    -0.0069    -0.928    -0.331    -0.310 -0.2035  0.7990 -0.5659
     4 C(13)  Bbb    -0.0065    -0.877    -0.313    -0.293 -0.3418  0.4836  0.8058
              Bcc     0.0135     1.805     0.644     0.602  0.9175  0.3574  0.1747
 
              Baa    -0.1244   -16.700    -5.959    -5.570  0.0130  0.1273  0.9918
     5 C(13)  Bbb    -0.1235   -16.570    -5.913    -5.527  0.0297  0.9914 -0.1276
              Bcc     0.2479    33.269    11.871    11.098  0.9995 -0.0311 -0.0091
 
              Baa    -0.0043    -2.317    -0.827    -0.773  0.2122  0.0593  0.9754
     6 H(1)   Bbb    -0.0022    -1.172    -0.418    -0.391 -0.2888  0.9574  0.0046
              Bcc     0.0065     3.489     1.245     1.164  0.9336  0.2826 -0.2203
 
              Baa    -0.0067    -3.594    -1.283    -1.199  0.2419  0.7012  0.6707
     7 H(1)   Bbb    -0.0018    -0.937    -0.334    -0.313  0.7143 -0.5965  0.3661
              Bcc     0.0085     4.532     1.617     1.512  0.6568  0.3905 -0.6451
 
              Baa    -0.0173    -9.235    -3.295    -3.080  0.1744  0.9730  0.1513
     8 H(1)   Bbb    -0.0025    -1.349    -0.482    -0.450  0.7863 -0.0451 -0.6162
              Bcc     0.0198    10.584     3.777     3.531  0.5927 -0.2264  0.7729
 
              Baa    -0.0168    -8.949    -3.193    -2.985 -0.0514 -0.6443  0.7630
     9 H(1)   Bbb    -0.0040    -2.125    -0.758    -0.709  0.8715  0.3442  0.3494
              Bcc     0.0208    11.074     3.951     3.694 -0.4877  0.6829  0.5438
 
              Baa    -0.0050    -2.679    -0.956    -0.894 -0.0832 -0.5302  0.8438
    10 H(1)   Bbb    -0.0031    -1.676    -0.598    -0.559  0.6942 -0.6383 -0.3326
              Bcc     0.0082     4.355     1.554     1.453  0.7149  0.5581  0.4212
 
              Baa    -0.0297   -15.873    -5.664    -5.295  0.2036 -0.3681  0.9072
    11 H(1)   Bbb    -0.0208   -11.103    -3.962    -3.703  0.8357 -0.4174 -0.3569
              Bcc     0.0506    26.975     9.625     8.998  0.5100  0.8309  0.2226
 
              Baa    -0.0857   -45.707   -16.309   -15.246  0.1001 -0.1659  0.9810
    12 H(1)   Bbb    -0.0736   -39.263   -14.010   -13.097  0.4001  0.9095  0.1130
              Bcc     0.1593    84.969    30.319    28.343  0.9110 -0.3812 -0.1575
 

 ---------------------------------------------------------------------------------

 No NMR shielding tensors so no spin-rotation constants.
 Leave Link  601 at Thu May 30 06:36:17 2019, MaxMem=   671088640 cpu:              10.0 elap:               0.6
 (Enter /shared/centos7/gaussian/g16/l9999.exe)
 1\1\GINC-C0153\FOpt\UM062X\CC-pVTZ\C2H7O3(2)\HARMS.N\30-May-2019\0\\#p
  m062x/cc-pVTZ Opt=(ModRedun,Loose,maxcycles=900) Int(Grid=SG1) scf=(m
 axcycle=900)\\Gaussian input prepared by ASE\\0,2\O,-1.0793728415,3.49
 25821488,-2.7086488802\O,-0.4415785158,1.5936059092,-0.9252285243\O,0.
 3086939441,1.1091623025,-1.9129919767\C,0.214673256,4.0310083504,-2.41
 68660701\C,1.3356988517,3.1003099243,-2.820077826\H,0.3193265393,5.007
 032283,-2.8987001902\H,0.2224314196,4.1923115577,-1.339007554\H,1.3156
 273924,2.9005118733,-3.8935936583\H,2.3062787153,3.522736261,-2.560811
 8014\H,-1.0794218724,3.1756097675,-3.616528656\H,-1.1125845077,2.12656
 20161,-1.4019190591\H,1.1897519002,2.0830974828,-2.2891957144\\Version
 =EM64L-G16RevA.03\State=2-A\HF=-305.9134591\S2=0.755666\S2-1=0.\S2A=0.
 750024\RMSD=6.435e-09\RMSF=1.054e-02\Dipole=-0.0179145,0.6706299,-0.65
 32352\Quadrupole=0.4174001,-1.7788696,1.3614695,1.8153052,0.3146356,0.
 8996219\PG=C01 [X(C2H7O3)]\\@


 Ideas are like rabbits. You get a couple and learn
 how to handle them, and pretty soon you have a dozen.
                                    -- John Steinbeck
 Job cpu time:       0 days  2 hours  5 minutes 58.8 seconds.
 Elapsed time:       0 days  0 hours  6 minutes 22.8 seconds.
 File lengths (MBytes):  RWF=    304 Int=      0 D2E=      0 Chk=     32 Scr=     32
 Normal termination of Gaussian 16 at Thu May 30 06:36:17 2019.
