 Entering Gaussian System, Link 0=g16
 Input=/scratch/harms.n//autotst-2.0-QMScratch/ts/CCO+[O]O_OO+[CH2]CO/conformers/CCO+[O]O_OO+[CH2]CO_forward_shell_5.com
 Output=/scratch/harms.n//autotst-2.0-QMScratch/ts/CCO+[O]O_OO+[CH2]CO/conformers/CCO+[O]O_OO+[CH2]CO_forward_shell_5.log
 Initial command:
 /shared/centos7/gaussian/g16/l1.exe "/scratch/harms.n/gauss_scrdir/Gau-31941.inp" -scrdir="/scratch/harms.n/gauss_scrdir/"
 Entering Link 1 = /shared/centos7/gaussian/g16/l1.exe PID=     31942.
  
 Copyright (c) 1988,1990,1992,1993,1995,1998,2003,2009,2016,
            Gaussian, Inc.  All Rights Reserved.
  
 This is part of the Gaussian(R) 16 program.  It is based on
 the Gaussian(R) 09 system (copyright 2009, Gaussian, Inc.),
 the Gaussian(R) 03 system (copyright 2003, Gaussian, Inc.),
 the Gaussian(R) 98 system (copyright 1998, Gaussian, Inc.),
 the Gaussian(R) 94 system (copyright 1995, Gaussian, Inc.),
 the Gaussian 92(TM) system (copyright 1992, Gaussian, Inc.),
 the Gaussian 90(TM) system (copyright 1990, Gaussian, Inc.),
 the Gaussian 88(TM) system (copyright 1988, Gaussian, Inc.),
 the Gaussian 86(TM) system (copyright 1986, Carnegie Mellon
 University), and the Gaussian 82(TM) system (copyright 1983,
 Carnegie Mellon University). Gaussian is a federally registered
 trademark of Gaussian, Inc.
  
 This software contains proprietary and confidential information,
 including trade secrets, belonging to Gaussian, Inc.
  
 This software is provided under written license and may be
 used, copied, transmitted, or stored only in accord with that
 written license.
  
 The following legend is applicable only to US Government
 contracts under FAR:
  
                    RESTRICTED RIGHTS LEGEND
  
 Use, reproduction and disclosure by the US Government is
 subject to restrictions as set forth in subparagraphs (a)
 and (c) of the Commercial Computer Software - Restricted
 Rights clause in FAR 52.227-19.
  
 Gaussian, Inc.
 340 Quinnipiac St., Bldg. 40, Wallingford CT 06492
  
  
 ---------------------------------------------------------------
 Warning -- This program may not be used in any manner that
 competes with the business of Gaussian, Inc. or will provide
 assistance to any competitor of Gaussian, Inc.  The licensee
 of this program is prohibited from giving any competitor of
 Gaussian, Inc. access to this program.  By using this program,
 the user acknowledges that Gaussian, Inc. is engaged in the
 business of creating and licensing software in the field of
 computational chemistry and represents and warrants to the
 licensee that it is not a competitor of Gaussian, Inc. and that
 it will not use this program in any manner prohibited above.
 ---------------------------------------------------------------
  

 Cite this work as:
 Gaussian 16, Revision A.03,
 M. J. Frisch, G. W. Trucks, H. B. Schlegel, G. E. Scuseria, 
 M. A. Robb, J. R. Cheeseman, G. Scalmani, V. Barone, 
 G. A. Petersson, H. Nakatsuji, X. Li, M. Caricato, A. V. Marenich, 
 J. Bloino, B. G. Janesko, R. Gomperts, B. Mennucci, H. P. Hratchian, 
 J. V. Ortiz, A. F. Izmaylov, J. L. Sonnenberg, D. Williams-Young, 
 F. Ding, F. Lipparini, F. Egidi, J. Goings, B. Peng, A. Petrone, 
 T. Henderson, D. Ranasinghe, V. G. Zakrzewski, J. Gao, N. Rega, 
 G. Zheng, W. Liang, M. Hada, M. Ehara, K. Toyota, R. Fukuda, 
 J. Hasegawa, M. Ishida, T. Nakajima, Y. Honda, O. Kitao, H. Nakai, 
 T. Vreven, K. Throssell, J. A. Montgomery, Jr., J. E. Peralta, 
 F. Ogliaro, M. J. Bearpark, J. J. Heyd, E. N. Brothers, K. N. Kudin, 
 V. N. Staroverov, T. A. Keith, R. Kobayashi, J. Normand, 
 K. Raghavachari, A. P. Rendell, J. C. Burant, S. S. Iyengar, 
 J. Tomasi, M. Cossi, J. M. Millam, M. Klene, C. Adamo, R. Cammi, 
 J. W. Ochterski, R. L. Martin, K. Morokuma, O. Farkas, 
 J. B. Foresman, and D. J. Fox, Gaussian, Inc., Wallingford CT, 2016.
 
 ******************************************
 Gaussian 16:  EM64L-G16RevA.03 25-Dec-2016
                22-Jun-2019 
 ******************************************
 %nprocshared=20
 Will use up to   20 processors via shared memory.
 %mem=5GB
 ----------------------------------------------------------------------
 #p m062x/cc-pVTZ Opt=(ModRedun,Loose,maxcycles=900) Int(Grid=SG1) scf=
 (maxcycle=900)
 ----------------------------------------------------------------------
 1/6=900,7=-1,18=120,19=15,26=2,38=1/1,3;
 2/9=110,12=2,17=6,18=5,40=1/2;
 3/5=16,6=1,11=2,25=1,30=1,71=1,74=-55,75=1/1,2,3;
 4//1;
 5/5=2,7=900,38=5/2;
 6/7=2,8=2,9=2,10=2,28=1/1;
 7//1,2,3,16;
 1/6=900,7=-1,18=20,19=15,26=2/3(2);
 2/9=110/2;
 99//99;
 2/9=110/2;
 3/5=16,6=1,11=2,25=1,30=1,71=1,74=-55,75=1/1,2,3;
 4/5=5,16=3,69=1/1;
 5/5=2,7=900,38=5/2;
 7//1,2,3,16;
 1/6=900,7=-1,18=20,19=15,26=2/3(-5);
 2/9=110/2;
 6/7=2,8=2,9=2,10=2,19=2,28=1/1;
 99/9=1/99;
 Leave Link    1 at Sat Jun 22 12:26:40 2019, MaxMem=   671088640 cpu:              13.8 elap:               0.7
 (Enter /shared/centos7/gaussian/g16/l101.exe)
 ------------------------------
 Gaussian input prepared by ASE
 ------------------------------
 Symbolic Z-matrix:
 Charge =  0 Multiplicity = 2
 O                    -2.61568   0.1306    0.84471 
 O                     0.04715   1.42409   3.92361 
 O                    -0.57264   0.6957    3.01959 
 C                    -1.9681    1.1388    0.11843 
 C                    -0.89301   1.86925   0.91149 
 H                    -1.52016   0.68631  -0.79494 
 H                    -2.72871   1.86587  -0.23634 
 H                    -0.92947   1.46192   2.2177 
 H                    -1.03679   2.97023   0.93947 
 H                     0.14046   1.61421   0.59541 
 H                    -2.19983   0.10293   1.74588 
 H                     1.00274   1.35915   3.67222 
 
 Add virtual bond connecting atoms H8         and O3         Dist= 2.20D+00.
 Add virtual bond connecting atoms H8         and C5         Dist= 2.59D+00.
 The following ModRedundant input section has been read:
 B       5       8 F                                                           
 B       3       8 F                                                           
 A       3       8       5 F                                                   
 
 ITRead=  0  0  0  0  0  0  0  0  0  0  0  0
 MicOpt= -1 -1 -1 -1 -1 -1 -1 -1 -1 -1 -1 -1
 NAtoms=     12 NQM=       12 NQMF=       0 NMMI=      0 NMMIF=      0
                NMic=       0 NMicF=      0.
                    Isotopes and Nuclear Properties:
 (Nuclear quadrupole moments (NQMom) in fm**2, nuclear magnetic moments (NMagM)
  in nuclear magnetons)

  Atom         1           2           3           4           5           6           7           8           9          10
 IAtWgt=          16          16          16          12          12           1           1           1           1           1
 AtmWgt=  15.9949146  15.9949146  15.9949146  12.0000000  12.0000000   1.0078250   1.0078250   1.0078250   1.0078250   1.0078250
 NucSpn=           0           0           0           0           0           1           1           1           1           1
 AtZEff=  -0.0000000  -0.0000000  -0.0000000  -0.0000000  -0.0000000  -0.0000000  -0.0000000  -0.0000000  -0.0000000  -0.0000000
 NQMom=    0.0000000   0.0000000   0.0000000   0.0000000   0.0000000   0.0000000   0.0000000   0.0000000   0.0000000   0.0000000
 NMagM=    0.0000000   0.0000000   0.0000000   0.0000000   0.0000000   2.7928460   2.7928460   2.7928460   2.7928460   2.7928460
 AtZNuc=   8.0000000   8.0000000   8.0000000   6.0000000   6.0000000   1.0000000   1.0000000   1.0000000   1.0000000   1.0000000

  Atom        11          12
 IAtWgt=           1           1
 AtmWgt=   1.0078250   1.0078250
 NucSpn=           1           1
 AtZEff=  -0.0000000  -0.0000000
 NQMom=    0.0000000   0.0000000
 NMagM=    2.7928460   2.7928460
 AtZNuc=   1.0000000   1.0000000
 Leave Link  101 at Sat Jun 22 12:26:40 2019, MaxMem=   671088640 cpu:               4.8 elap:               0.3
 (Enter /shared/centos7/gaussian/g16/l103.exe)

 GradGradGradGradGradGradGradGradGradGradGradGradGradGradGradGradGradGrad
 Berny optimization.
 Initialization pass.
                           ----------------------------
                           !    Initial Parameters    !
                           ! (Angstroms and Degrees)  !
 --------------------------                            --------------------------
 ! Name  Definition              Value          Derivative Info.                !
 --------------------------------------------------------------------------------
 ! R1    R(1,4)                  1.4012         estimate D2E/DX2                !
 ! R2    R(1,11)                 0.9929         estimate D2E/DX2                !
 ! R3    R(2,3)                  1.316          estimate D2E/DX2                !
 ! R4    R(2,12)                 0.9902         estimate D2E/DX2                !
 ! R5    R(3,8)                  1.1651         Frozen                          !
 ! R6    R(4,5)                  1.5226         estimate D2E/DX2                !
 ! R7    R(4,6)                  1.1134         estimate D2E/DX2                !
 ! R8    R(4,7)                  1.1104         estimate D2E/DX2                !
 ! R9    R(5,8)                  1.3687         Frozen                          !
 ! R10   R(5,9)                  1.1107         estimate D2E/DX2                !
 ! R11   R(5,10)                 1.1104         estimate D2E/DX2                !
 ! A1    A(4,1,11)             107.2732         estimate D2E/DX2                !
 ! A2    A(3,2,12)             104.1101         estimate D2E/DX2                !
 ! A3    A(2,3,8)              104.6579         estimate D2E/DX2                !
 ! A4    A(1,4,5)              113.6748         estimate D2E/DX2                !
 ! A5    A(1,4,6)              108.5864         estimate D2E/DX2                !
 ! A6    A(1,4,7)              108.6729         estimate D2E/DX2                !
 ! A7    A(5,4,6)              109.7654         estimate D2E/DX2                !
 ! A8    A(5,4,7)              109.6299         estimate D2E/DX2                !
 ! A9    A(6,4,7)              106.2357         estimate D2E/DX2                !
 ! A10   A(4,5,8)              109.6018         estimate D2E/DX2                !
 ! A11   A(4,5,9)              113.4072         estimate D2E/DX2                !
 ! A12   A(4,5,10)             113.4983         estimate D2E/DX2                !
 ! A13   A(8,5,9)              105.5157         estimate D2E/DX2                !
 ! A14   A(8,5,10)             103.1849         estimate D2E/DX2                !
 ! A15   A(9,5,10)             110.8134         estimate D2E/DX2                !
 ! A16   A(3,8,5)              147.6051         Frozen                          !
 ! D1    D(11,1,4,5)            -1.1879         estimate D2E/DX2                !
 ! D2    D(11,1,4,6)           121.2919         estimate D2E/DX2                !
 ! D3    D(11,1,4,7)          -123.5569         estimate D2E/DX2                !
 ! D4    D(12,2,3,8)           -96.2573         estimate D2E/DX2                !
 ! D5    D(2,3,8,5)            120.7005         estimate D2E/DX2                !
 ! D6    D(1,4,5,8)             -7.2792         estimate D2E/DX2                !
 ! D7    D(1,4,5,9)           -124.8977         estimate D2E/DX2                !
 ! D8    D(1,4,5,10)           107.483          estimate D2E/DX2                !
 ! D9    D(6,4,5,8)           -129.1066         estimate D2E/DX2                !
 ! D10   D(6,4,5,9)            113.2749         estimate D2E/DX2                !
 ! D11   D(6,4,5,10)           -14.3444         estimate D2E/DX2                !
 ! D12   D(7,4,5,8)            114.5601         estimate D2E/DX2                !
 ! D13   D(7,4,5,9)             -3.0584         estimate D2E/DX2                !
 ! D14   D(7,4,5,10)          -130.6776         estimate D2E/DX2                !
 ! D15   D(4,5,8,3)             87.2719         estimate D2E/DX2                !
 ! D16   D(9,5,8,3)           -150.2812         estimate D2E/DX2                !
 ! D17   D(10,5,8,3)           -33.9354         estimate D2E/DX2                !
 --------------------------------------------------------------------------------
 Trust Radius=3.00D-01 FncErr=1.00D-05 GrdErr=1.00D-04 EigMax=2.50D+02 EigMin=1.00D-04
 Number of steps in this run=    100 maximum allowed number of steps=    100.
 GradGradGradGradGradGradGradGradGradGradGradGradGradGradGradGradGradGrad

 Leave Link  103 at Sat Jun 22 12:26:40 2019, MaxMem=   671088640 cpu:               0.4 elap:               0.0
 (Enter /shared/centos7/gaussian/g16/l202.exe)
                          Input orientation:                          
 ---------------------------------------------------------------------
 Center     Atomic      Atomic             Coordinates (Angstroms)
 Number     Number       Type             X           Y           Z
 ---------------------------------------------------------------------
      1          8           0       -2.615683    0.130597    0.844706
      2          8           0        0.047148    1.424087    3.923611
      3          8           0       -0.572637    0.695705    3.019592
      4          6           0       -1.968102    1.138799    0.118432
      5          6           0       -0.893006    1.869247    0.911487
      6          1           0       -1.520156    0.686315   -0.794944
      7          1           0       -2.728708    1.865874   -0.236335
      8          1           0       -0.929474    1.461916    2.217697
      9          1           0       -1.036788    2.970235    0.939473
     10          1           0        0.140464    1.614213    0.595409
     11          1           0       -2.199828    0.102935    1.745875
     12          1           0        1.002742    1.359148    3.672217
 ---------------------------------------------------------------------
                    Distance matrix (angstroms):
                    1          2          3          4          5
     1  O    0.000000
     2  O    4.271234   0.000000
     3  O    3.037024   1.316026   0.000000
     4  C    1.401180   4.315323   3.249675   0.000000
     5  C    2.448465   3.186682   2.433915   1.522605   0.000000
     6  H    2.048769   5.026481   3.930467   1.113397   2.168998
     7  H    2.047586   5.020528   4.076641   1.110413   2.165020
     8  H    2.549669   1.966053   1.165096   2.364332   1.368733
     9  H    3.250451   3.531369   3.117020   2.212603   1.110689
    10  H    3.140001   3.334934   2.688649   2.213499   1.110408
    11  H    0.992878   3.396598   2.149764   1.943009   2.350287
    12  H    4.753647   0.990240   1.829725   4.637226   3.387579
                    6          7          8          9         10
     6  H    0.000000
     7  H    1.778764   0.000000
     8  H    3.166460   3.069641   0.000000
     9  H    2.908288   2.337677   1.979999   0.000000
    10  H    2.356212   2.997879   1.949302   1.828414   0.000000
    11  H    2.694077   2.704963   1.919178   3.197555   3.014051
    12  H    5.174287   5.427455   2.420672   3.771362   3.205516
                   11         12
    11  H    0.000000
    12  H    3.942756   0.000000
 Stoichiometry    C2H7O3(2)
 Framework group  C1[X(C2H7O3)]
 Deg. of freedom    30
 Full point group                 C1      NOp   1
 Largest Abelian subgroup         C1      NOp   1
 Largest concise Abelian subgroup C1      NOp   1
                         Standard orientation:                         
 ---------------------------------------------------------------------
 Center     Atomic      Atomic             Coordinates (Angstroms)
 Number     Number       Type             X           Y           Z
 ---------------------------------------------------------------------
      1          8           0        1.663700   -1.065427   -0.049678
      2          8           0       -2.472179   -0.008816   -0.196369
      3          8           0       -1.312559   -0.505602    0.178342
      4          6           0        1.824989    0.324901    0.015731
      5          6           0        0.511561    1.094670   -0.010484
      6          1           0        2.388674    0.573525    0.943147
      7          1           0        2.464269    0.648932   -0.832409
      8          1           0       -0.521779    0.231415   -0.256308
      9          1           0        0.461927    1.855233   -0.818389
     10          1           0        0.240652    1.541541    0.969272
     11          1           0        0.688238   -1.247904   -0.081043
     12          1           0       -2.772973    0.518599    0.585891
 ---------------------------------------------------------------------
 Rotational constants (GHZ):           9.9154440           2.1230163           1.8085579
 Leave Link  202 at Sat Jun 22 12:26:40 2019, MaxMem=   671088640 cpu:               0.2 elap:               0.0
 (Enter /shared/centos7/gaussian/g16/l301.exe)
 Standard basis: CC-pVTZ (5D, 7F)
 Ernie: Thresh=  0.10000D-02 Tol=  0.10000D-05 Strict=F.
 Ernie:  15 primitive shells out of 186 were deleted.
 There are   280 symmetry adapted cartesian basis functions of A   symmetry.
 There are   248 symmetry adapted basis functions of A   symmetry.
   248 basis functions,   379 primitive gaussians,   280 cartesian basis functions
    22 alpha electrons       21 beta electrons
       nuclear repulsion energy       185.9704365784 Hartrees.
 IExCor= 4336 DFT=T Ex+Corr=M062X ExCW=0 ScaHFX=  0.540000
 ScaDFX=  1.000000  1.000000  1.000000  1.000000 ScalE2=  1.000000  1.000000
 IRadAn=      1 IRanWt=     -1 IRanGd=            0 ICorTp=0 IEmpDi=  4
 NAtoms=   12 NActive=   12 NUniq=   12 SFac= 1.00D+00 NAtFMM=   60 NAOKFM=F Big=F
 Integral buffers will be    131072 words long.
 Raffenetti 2 integral format.
 Two-electron integral symmetry is turned on.
 Leave Link  301 at Sat Jun 22 12:26:40 2019, MaxMem=   671088640 cpu:               1.3 elap:               0.1
 (Enter /shared/centos7/gaussian/g16/l302.exe)
 NPDir=0 NMtPBC=     1 NCelOv=     1 NCel=       1 NClECP=     1 NCelD=      1
         NCelK=      1 NCelE2=     1 NClLst=     1 CellRange=     0.0.
 One-electron integrals computed using PRISM.
 One-electron integral symmetry used in STVInt
 NBasis=   248 RedAO= T EigKep=  6.97D-04  NBF=   248
 NBsUse=   248 1.00D-06 EigRej= -1.00D+00 NBFU=   248
 Precomputing XC quadrature grid using
 IXCGrd= 4 IRadAn=           1 IRanWt=          -1 IRanGd=           0 AccXCQ= 0.00D+00.
 Generated NRdTot=       0 NPtTot=           0 NUsed=           0 NTot=          32
 NSgBfM=   280   280   280   280   280 MxSgAt=    12 MxSgA2=    12.
 Leave Link  302 at Sat Jun 22 12:26:40 2019, MaxMem=   671088640 cpu:               4.5 elap:               0.3
 (Enter /shared/centos7/gaussian/g16/l303.exe)
 DipDrv:  MaxL=1.
 Leave Link  303 at Sat Jun 22 12:26:40 2019, MaxMem=   671088640 cpu:               0.8 elap:               0.1
 (Enter /shared/centos7/gaussian/g16/l401.exe)
 ExpMin= 1.03D-01 ExpMax= 1.53D+04 ExpMxC= 5.22D+02 IAcc=1 IRadAn=         1 AccDes= 0.00D+00
 Harris functional with IExCor= 1009 and IRadAn=       1 diagonalized for initial guess.
 HarFok:  IExCor= 1009 AccDes= 0.00D+00 IRadAn=         1 IDoV= 1 UseB2=F ITyADJ=14
 ICtDFT=  3500011 ScaDFX=  1.000000  1.000000  1.000000  1.000000
 FoFCou: FMM=F IPFlag=           0 FMFlag=      100000 FMFlg1=           0
         NFxFlg=           0 DoJE=T BraDBF=F KetDBF=T FulRan=T
         wScrn=  0.000000 ICntrl=       500 IOpCl=  0 I1Cent=   200000004 NGrid=           0
         NMat0=    1 NMatS0=      1 NMatT0=    0 NMatD0=    1 NMtDS0=    0 NMtDT0=    0
 Petite list used in FoFCou.
 Harris En= -305.759417018138    
 JPrj=0 DoOrth=F DoCkMO=F.
 Initial guess <Sx>= 0.0000 <Sy>= 0.0000 <Sz>= 0.5000 <S**2>= 0.7500 S= 0.5000
 Leave Link  401 at Sat Jun 22 12:26:41 2019, MaxMem=   671088640 cpu:               6.8 elap:               0.4
 (Enter /shared/centos7/gaussian/g16/l502.exe)
 Integral symmetry usage will be decided dynamically.
 UHF open shell SCF:
 Using DIIS extrapolation, IDIIS=  1040.
 NGot=   671088640 LenX=   670923676 LenY=   670844835
 Requested convergence on RMS density matrix=1.00D-08 within 900 cycles.
 Requested convergence on MAX density matrix=1.00D-06.
 Requested convergence on             energy=1.00D-06.
 No special actions if energy rises.
 Fock matrices will be formed incrementally for  20 cycles.

 Cycle   1  Pass 1  IDiag  1:
 FoFJK:  IHMeth= 1 ICntrl=       0 DoSepK=F KAlg= 0 I1Cent=           0 FoldK=F
 IRaf= 960000000 NMat=       1 IRICut=       1 DoRegI=T DoRafI=F ISym2E= 0 IDoP0=0 IntGTp=1.
 FoFCou: FMM=F IPFlag=           0 FMFlag=      100000 FMFlg1=           0
         NFxFlg=           0 DoJE=F BraDBF=F KetDBF=F FulRan=T
         wScrn=  0.000000 ICntrl=         0 IOpCl=  1 I1Cent=           0 NGrid=           0
         NMat0=    1 NMatS0=      1 NMatT0=    0 NMatD0=    1 NMtDS0=    0 NMtDT0=    0
 Symmetry not used in FoFCou.
 E= -305.714880034297    
 DIIS: error= 2.30D-02 at cycle   1 NSaved=   1.
 NSaved= 1 IEnMin= 1 EnMin= -305.714880034297     IErMin= 1 ErrMin= 2.30D-02
 ErrMax= 2.30D-02  0.00D+00 EMaxC= 1.00D-01 BMatC= 8.30D-01 BMatP= 8.30D-01
 IDIUse=3 WtCom= 7.70D-01 WtEn= 2.30D-01
 Coeff-Com:  0.100D+01
 Coeff-En:   0.100D+01
 Coeff:      0.100D+01
 Gap=     0.399 Goal=   None    Shift=    0.000
 Gap=     0.331 Goal=   None    Shift=    0.000
 GapD=    0.331 DampG=1.000 DampE=0.500 DampFc=0.5000 IDamp=-1.
 Damping current iteration by 5.00D-01
 RMSDP=2.40D-03 MaxDP=1.04D-01              OVMax= 3.07D-01

 Cycle   2  Pass 1  IDiag  1:
 RMSU=  1.20D-03    CP:  1.00D+00
 E= -305.791675454643     Delta-E=       -0.076795420346 Rises=F Damp=T
 DIIS: error= 7.22D-03 at cycle   2 NSaved=   2.
 NSaved= 2 IEnMin= 2 EnMin= -305.791675454643     IErMin= 2 ErrMin= 7.22D-03
 ErrMax= 7.22D-03  0.00D+00 EMaxC= 1.00D-01 BMatC= 8.30D-02 BMatP= 8.30D-01
 IDIUse=3 WtCom= 9.28D-01 WtEn= 7.22D-02
 Coeff-Com: -0.635D-01 0.106D+01
 Coeff-En:   0.000D+00 0.100D+01
 Coeff:     -0.589D-01 0.106D+01
 Gap=     0.392 Goal=   None    Shift=    0.000
 Gap=     0.249 Goal=   None    Shift=    0.000
 RMSDP=5.49D-04 MaxDP=1.55D-02 DE=-7.68D-02 OVMax= 1.37D-01

 Cycle   3  Pass 1  IDiag  1:
 RMSU=  5.30D-04    CP:  1.01D+00  8.87D-01
 E= -305.870392687352     Delta-E=       -0.078717232709 Rises=F Damp=F
 DIIS: error= 3.13D-03 at cycle   3 NSaved=   3.
 NSaved= 3 IEnMin= 3 EnMin= -305.870392687352     IErMin= 3 ErrMin= 3.13D-03
 ErrMax= 3.13D-03  0.00D+00 EMaxC= 1.00D-01 BMatC= 2.28D-02 BMatP= 8.30D-02
 IDIUse=3 WtCom= 9.69D-01 WtEn= 3.13D-02
 Coeff-Com: -0.840D-01 0.355D+00 0.729D+00
 Coeff-En:   0.000D+00 0.000D+00 0.100D+01
 Coeff:     -0.813D-01 0.344D+00 0.738D+00
 Gap=     0.355 Goal=   None    Shift=    0.000
 Gap=     0.229 Goal=   None    Shift=    0.000
 RMSDP=2.43D-04 MaxDP=8.29D-03 DE=-7.87D-02 OVMax= 6.23D-02

 Cycle   4  Pass 1  IDiag  1:
 RMSU=  2.08D-04    CP:  1.00D+00  9.71D-01  8.61D-01
 E= -305.874616523460     Delta-E=       -0.004223836109 Rises=F Damp=F
 DIIS: error= 1.50D-03 at cycle   4 NSaved=   4.
 NSaved= 4 IEnMin= 4 EnMin= -305.874616523460     IErMin= 4 ErrMin= 1.50D-03
 ErrMax= 1.50D-03  0.00D+00 EMaxC= 1.00D-01 BMatC= 5.04D-03 BMatP= 2.28D-02
 IDIUse=3 WtCom= 9.85D-01 WtEn= 1.50D-02
 Coeff-Com: -0.276D-01 0.603D-01 0.347D+00 0.621D+00
 Coeff-En:   0.000D+00 0.000D+00 0.000D+00 0.100D+01
 Coeff:     -0.271D-01 0.594D-01 0.341D+00 0.626D+00
 Gap=     0.355 Goal=   None    Shift=    0.000
 Gap=     0.238 Goal=   None    Shift=    0.000
 RMSDP=9.34D-05 MaxDP=3.46D-03 DE=-4.22D-03 OVMax= 9.51D-03

 Cycle   5  Pass 1  IDiag  1:
 RMSU=  6.98D-05    CP:  1.00D+00  9.64D-01  9.68D-01  8.86D-01
 E= -305.875668032644     Delta-E=       -0.001051509184 Rises=F Damp=F
 DIIS: error= 5.67D-04 at cycle   5 NSaved=   5.
 NSaved= 5 IEnMin= 5 EnMin= -305.875668032644     IErMin= 5 ErrMin= 5.67D-04
 ErrMax= 5.67D-04  0.00D+00 EMaxC= 1.00D-01 BMatC= 2.43D-04 BMatP= 5.04D-03
 IDIUse=3 WtCom= 9.94D-01 WtEn= 5.67D-03
 Coeff-Com:  0.757D-02-0.284D-01-0.185D-01 0.385D-01 0.100D+01
 Coeff-En:   0.000D+00 0.000D+00 0.000D+00 0.000D+00 0.100D+01
 Coeff:      0.753D-02-0.283D-01-0.184D-01 0.382D-01 0.100D+01
 Gap=     0.357 Goal=   None    Shift=    0.000
 Gap=     0.241 Goal=   None    Shift=    0.000
 RMSDP=5.96D-05 MaxDP=2.08D-03 DE=-1.05D-03 OVMax= 1.73D-02

 Cycle   6  Pass 1  IDiag  1:
 RMSU=  2.99D-05    CP:  1.00D+00  9.57D-01  1.00D+00  1.07D+00  1.41D+00
 E= -305.875881907321     Delta-E=       -0.000213874677 Rises=F Damp=F
 DIIS: error= 3.10D-04 at cycle   6 NSaved=   6.
 NSaved= 6 IEnMin= 6 EnMin= -305.875881907321     IErMin= 6 ErrMin= 3.10D-04
 ErrMax= 3.10D-04  0.00D+00 EMaxC= 1.00D-01 BMatC= 1.19D-04 BMatP= 2.43D-04
 IDIUse=3 WtCom= 9.97D-01 WtEn= 3.10D-03
 Coeff-Com:  0.942D-02-0.230D-01-0.856D-01-0.185D+00 0.304D+00 0.979D+00
 Coeff-En:   0.000D+00 0.000D+00 0.000D+00 0.000D+00 0.000D+00 0.100D+01
 Coeff:      0.939D-02-0.229D-01-0.853D-01-0.184D+00 0.303D+00 0.980D+00
 Gap=     0.360 Goal=   None    Shift=    0.000
 Gap=     0.242 Goal=   None    Shift=    0.000
 RMSDP=4.43D-05 MaxDP=1.41D-03 DE=-2.14D-04 OVMax= 9.58D-03

 Cycle   7  Pass 1  IDiag  1:
 RMSU=  1.71D-05    CP:  1.00D+00  9.53D-01  1.03D+00  1.17D+00  1.86D+00
                    CP:  1.31D+00
 E= -305.875960890994     Delta-E=       -0.000078983673 Rises=F Damp=F
 DIIS: error= 1.53D-04 at cycle   7 NSaved=   7.
 NSaved= 7 IEnMin= 7 EnMin= -305.875960890994     IErMin= 7 ErrMin= 1.53D-04
 ErrMax= 1.53D-04  0.00D+00 EMaxC= 1.00D-01 BMatC= 2.81D-05 BMatP= 1.19D-04
 IDIUse=3 WtCom= 9.98D-01 WtEn= 1.53D-03
 Coeff-Com:  0.279D-02-0.380D-02-0.297D-01-0.966D-01-0.548D-01 0.465D+00
 Coeff-Com:  0.717D+00
 Coeff-En:   0.000D+00 0.000D+00 0.000D+00 0.000D+00 0.000D+00 0.000D+00
 Coeff-En:   0.100D+01
 Coeff:      0.278D-02-0.379D-02-0.296D-01-0.965D-01-0.547D-01 0.464D+00
 Coeff:      0.718D+00
 Gap=     0.359 Goal=   None    Shift=    0.000
 Gap=     0.243 Goal=   None    Shift=    0.000
 RMSDP=1.62D-05 MaxDP=5.12D-04 DE=-7.90D-05 OVMax= 5.05D-03

 Cycle   8  Pass 1  IDiag  1:
 RMSU=  6.55D-06    CP:  1.00D+00  9.53D-01  1.03D+00  1.20D+00  2.00D+00
                    CP:  1.59D+00  1.06D+00
 E= -305.875975899115     Delta-E=       -0.000015008121 Rises=F Damp=F
 DIIS: error= 5.23D-05 at cycle   8 NSaved=   8.
 NSaved= 8 IEnMin= 8 EnMin= -305.875975899115     IErMin= 8 ErrMin= 5.23D-05
 ErrMax= 5.23D-05  0.00D+00 EMaxC= 1.00D-01 BMatC= 3.60D-06 BMatP= 2.81D-05
 IDIUse=1 WtCom= 1.00D+00 WtEn= 0.00D+00
 Coeff-Com: -0.162D-02 0.380D-02 0.187D-01 0.327D-01-0.364D-01-0.225D+00
 Coeff-Com:  0.211D-02 0.121D+01
 Coeff:     -0.162D-02 0.380D-02 0.187D-01 0.327D-01-0.364D-01-0.225D+00
 Coeff:      0.211D-02 0.121D+01
 Gap=     0.360 Goal=   None    Shift=    0.000
 Gap=     0.242 Goal=   None    Shift=    0.000
 RMSDP=1.00D-05 MaxDP=3.86D-04 DE=-1.50D-05 OVMax= 2.83D-03

 Cycle   9  Pass 1  IDiag  1:
 RMSU=  3.15D-06    CP:  1.00D+00  9.53D-01  1.04D+00  1.21D+00  2.07D+00
                    CP:  1.73D+00  1.34D+00  1.55D+00
 E= -305.875979705269     Delta-E=       -0.000003806154 Rises=F Damp=F
 DIIS: error= 3.01D-05 at cycle   9 NSaved=   9.
 NSaved= 9 IEnMin= 9 EnMin= -305.875979705269     IErMin= 9 ErrMin= 3.01D-05
 ErrMax= 3.01D-05  0.00D+00 EMaxC= 1.00D-01 BMatC= 7.98D-07 BMatP= 3.60D-06
 IDIUse=1 WtCom= 1.00D+00 WtEn= 0.00D+00
 Coeff-Com: -0.799D-03 0.150D-02 0.111D-01 0.250D-01 0.351D-02-0.158D+00
 Coeff-Com: -0.103D+00 0.345D+00 0.876D+00
 Coeff:     -0.799D-03 0.150D-02 0.111D-01 0.250D-01 0.351D-02-0.158D+00
 Coeff:     -0.103D+00 0.345D+00 0.876D+00
 Gap=     0.360 Goal=   None    Shift=    0.000
 Gap=     0.242 Goal=   None    Shift=    0.000
 RMSDP=4.05D-06 MaxDP=1.78D-04 DE=-3.81D-06 OVMax= 1.14D-03

 Cycle  10  Pass 1  IDiag  1:
 RMSU=  1.33D-06    CP:  1.00D+00  9.53D-01  1.04D+00  1.21D+00  2.10D+00
                    CP:  1.77D+00  1.45D+00  1.87D+00  1.38D+00
 E= -305.875980502788     Delta-E=       -0.000000797519 Rises=F Damp=F
 DIIS: error= 1.38D-05 at cycle  10 NSaved=  10.
 NSaved=10 IEnMin=10 EnMin= -305.875980502788     IErMin=10 ErrMin= 1.38D-05
 ErrMax= 1.38D-05  0.00D+00 EMaxC= 1.00D-01 BMatC= 1.75D-07 BMatP= 7.98D-07
 IDIUse=1 WtCom= 1.00D+00 WtEn= 0.00D+00
 Coeff-Com:  0.228D-03-0.591D-03-0.152D-02-0.242D-02 0.852D-02 0.116D-01
 Coeff-Com: -0.117D-01-0.209D+00 0.165D+00 0.104D+01
 Coeff:      0.228D-03-0.591D-03-0.152D-02-0.242D-02 0.852D-02 0.116D-01
 Coeff:     -0.117D-01-0.209D+00 0.165D+00 0.104D+01
 Gap=     0.360 Goal=   None    Shift=    0.000
 Gap=     0.243 Goal=   None    Shift=    0.000
 RMSDP=2.52D-06 MaxDP=1.28D-04 DE=-7.98D-07 OVMax= 6.88D-04

 Cycle  11  Pass 1  IDiag  1:
 RMSU=  6.71D-07    CP:  1.00D+00  9.52D-01  1.04D+00  1.22D+00  2.11D+00
                    CP:  1.79D+00  1.49D+00  2.04D+00  1.84D+00  1.55D+00
 E= -305.875980770070     Delta-E=       -0.000000267282 Rises=F Damp=F
 DIIS: error= 8.43D-06 at cycle  11 NSaved=  11.
 NSaved=11 IEnMin=11 EnMin= -305.875980770070     IErMin=11 ErrMin= 8.43D-06
 ErrMax= 8.43D-06  0.00D+00 EMaxC= 1.00D-01 BMatC= 5.64D-08 BMatP= 1.75D-07
 IDIUse=1 WtCom= 1.00D+00 WtEn= 0.00D+00
 Coeff-Com:  0.255D-03-0.532D-03-0.300D-02-0.635D-02 0.261D-02 0.402D-01
 Coeff-Com:  0.182D-01-0.164D+00-0.138D+00 0.383D+00 0.868D+00
 Coeff:      0.255D-03-0.532D-03-0.300D-02-0.635D-02 0.261D-02 0.402D-01
 Coeff:      0.182D-01-0.164D+00-0.138D+00 0.383D+00 0.868D+00
 Gap=     0.360 Goal=   None    Shift=    0.000
 Gap=     0.243 Goal=   None    Shift=    0.000
 RMSDP=1.28D-06 MaxDP=5.28D-05 DE=-2.67D-07 OVMax= 3.61D-04

 Cycle  12  Pass 1  IDiag  1:
 RMSU=  3.73D-07    CP:  1.00D+00  9.52D-01  1.04D+00  1.22D+00  2.11D+00
                    CP:  1.80D+00  1.51D+00  2.12D+00  2.07D+00  2.00D+00
                    CP:  1.45D+00
 E= -305.875980845584     Delta-E=       -0.000000075515 Rises=F Damp=F
 DIIS: error= 4.83D-06 at cycle  12 NSaved=  12.
 NSaved=12 IEnMin=12 EnMin= -305.875980845584     IErMin=12 ErrMin= 4.83D-06
 ErrMax= 4.83D-06  0.00D+00 EMaxC= 1.00D-01 BMatC= 2.07D-08 BMatP= 5.64D-08
 IDIUse=1 WtCom= 1.00D+00 WtEn= 0.00D+00
 Coeff-Com:  0.247D-04-0.331D-04-0.847D-03-0.183D-02-0.199D-02 0.134D-01
 Coeff-Com:  0.105D-01 0.609D-02-0.114D+00-0.184D+00 0.385D+00 0.888D+00
 Coeff:      0.247D-04-0.331D-04-0.847D-03-0.183D-02-0.199D-02 0.134D-01
 Coeff:      0.105D-01 0.609D-02-0.114D+00-0.184D+00 0.385D+00 0.888D+00
 Gap=     0.360 Goal=   None    Shift=    0.000
 Gap=     0.243 Goal=   None    Shift=    0.000
 RMSDP=7.77D-07 MaxDP=3.58D-05 DE=-7.55D-08 OVMax= 2.50D-04

 Cycle  13  Pass 1  IDiag  1:
 RMSU=  2.21D-07    CP:  1.00D+00  9.52D-01  1.04D+00  1.22D+00  2.11D+00
                    CP:  1.80D+00  1.52D+00  2.15D+00  2.21D+00  2.29D+00
                    CP:  1.99D+00  1.42D+00
 E= -305.875980872126     Delta-E=       -0.000000026541 Rises=F Damp=F
 DIIS: error= 2.36D-06 at cycle  13 NSaved=  13.
 NSaved=13 IEnMin=13 EnMin= -305.875980872126     IErMin=13 ErrMin= 2.36D-06
 ErrMax= 2.36D-06  0.00D+00 EMaxC= 1.00D-01 BMatC= 5.60D-09 BMatP= 2.07D-08
 IDIUse=1 WtCom= 1.00D+00 WtEn= 0.00D+00
 Coeff-Com: -0.119D-03 0.260D-03 0.108D-02 0.238D-02-0.173D-02-0.127D-01
 Coeff-Com: -0.644D-02 0.742D-01 0.214D-01-0.227D+00-0.239D+00 0.293D+00
 Coeff-Com:  0.109D+01
 Coeff:     -0.119D-03 0.260D-03 0.108D-02 0.238D-02-0.173D-02-0.127D-01
 Coeff:     -0.644D-02 0.742D-01 0.214D-01-0.227D+00-0.239D+00 0.293D+00
 Coeff:      0.109D+01
 Gap=     0.360 Goal=   None    Shift=    0.000
 Gap=     0.243 Goal=   None    Shift=    0.000
 RMSDP=5.85D-07 MaxDP=2.26D-05 DE=-2.65D-08 OVMax= 2.01D-04

 Cycle  14  Pass 1  IDiag  1:
 RMSU=  9.46D-08    CP:  1.00D+00  9.52D-01  1.04D+00  1.22D+00  2.11D+00
                    CP:  1.80D+00  1.52D+00  2.18D+00  2.29D+00  2.49D+00
                    CP:  2.44D+00  1.99D+00  1.36D+00
 E= -305.875980881139     Delta-E=       -0.000000009014 Rises=F Damp=F
 DIIS: error= 6.17D-07 at cycle  14 NSaved=  14.
 NSaved=14 IEnMin=14 EnMin= -305.875980881139     IErMin=14 ErrMin= 6.17D-07
 ErrMax= 6.17D-07  0.00D+00 EMaxC= 1.00D-01 BMatC= 5.15D-10 BMatP= 5.60D-09
 IDIUse=1 WtCom= 1.00D+00 WtEn= 0.00D+00
 Coeff-Com: -0.713D-06 0.942D-06 0.111D-03 0.272D-03 0.651D-04-0.215D-02
 Coeff-Com: -0.180D-02 0.112D-02 0.157D-01 0.235D-01-0.533D-01-0.173D+00
 Coeff-Com:  0.571D-01 0.113D+01
 Coeff:     -0.713D-06 0.942D-06 0.111D-03 0.272D-03 0.651D-04-0.215D-02
 Coeff:     -0.180D-02 0.112D-02 0.157D-01 0.235D-01-0.533D-01-0.173D+00
 Coeff:      0.571D-01 0.113D+01
 Gap=     0.360 Goal=   None    Shift=    0.000
 Gap=     0.243 Goal=   None    Shift=    0.000
 RMSDP=1.83D-07 MaxDP=7.24D-06 DE=-9.01D-09 OVMax= 6.27D-05

 Cycle  15  Pass 1  IDiag  1:
 RMSU=  3.30D-08    CP:  1.00D+00  9.52D-01  1.04D+00  1.22D+00  2.11D+00
                    CP:  1.80D+00  1.52D+00  2.18D+00  2.31D+00  2.55D+00
                    CP:  2.57D+00  2.18D+00  1.65D+00  1.39D+00
 E= -305.875980881933     Delta-E=       -0.000000000794 Rises=F Damp=F
 DIIS: error= 2.01D-07 at cycle  15 NSaved=  15.
 NSaved=15 IEnMin=15 EnMin= -305.875980881933     IErMin=15 ErrMin= 2.01D-07
 ErrMax= 2.01D-07  0.00D+00 EMaxC= 1.00D-01 BMatC= 5.14D-11 BMatP= 5.15D-10
 IDIUse=1 WtCom= 1.00D+00 WtEn= 0.00D+00
 Coeff-Com:  0.131D-04-0.283D-04-0.126D-03-0.249D-03 0.138D-03 0.162D-02
 Coeff-Com:  0.690D-03-0.845D-02-0.240D-02 0.269D-01 0.318D-01-0.370D-01
 Coeff-Com: -0.128D+00-0.158D-01 0.113D+01
 Coeff:      0.131D-04-0.283D-04-0.126D-03-0.249D-03 0.138D-03 0.162D-02
 Coeff:      0.690D-03-0.845D-02-0.240D-02 0.269D-01 0.318D-01-0.370D-01
 Coeff:     -0.128D+00-0.158D-01 0.113D+01
 Gap=     0.360 Goal=   None    Shift=    0.000
 Gap=     0.243 Goal=   None    Shift=    0.000
 RMSDP=3.95D-08 MaxDP=1.18D-06 DE=-7.94D-10 OVMax= 1.09D-05

 Cycle  16  Pass 1  IDiag  1:
 RMSU=  9.30D-09    CP:  1.00D+00  9.52D-01  1.04D+00  1.22D+00  2.11D+00
                    CP:  1.80D+00  1.52D+00  2.18D+00  2.32D+00  2.56D+00
                    CP:  2.60D+00  2.21D+00  1.72D+00  1.58D+00  1.44D+00
 E= -305.875980881982     Delta-E=       -0.000000000049 Rises=F Damp=F
 DIIS: error= 8.53D-08 at cycle  16 NSaved=  16.
 NSaved=16 IEnMin=16 EnMin= -305.875980881982     IErMin=16 ErrMin= 8.53D-08
 ErrMax= 8.53D-08  0.00D+00 EMaxC= 1.00D-01 BMatC= 4.10D-12 BMatP= 5.14D-11
 IDIUse=1 WtCom= 1.00D+00 WtEn= 0.00D+00
 Coeff-Com: -0.237D-05 0.482D-05 0.637D-05 0.185D-04-0.225D-04 0.122D-05
 Coeff-Com: -0.212D-04 0.754D-03-0.820D-03-0.451D-02 0.127D-02 0.158D-01
 Coeff-Com:  0.443D-02-0.751D-01-0.137D+00 0.120D+01
 Coeff:     -0.237D-05 0.482D-05 0.637D-05 0.185D-04-0.225D-04 0.122D-05
 Coeff:     -0.212D-04 0.754D-03-0.820D-03-0.451D-02 0.127D-02 0.158D-01
 Coeff:      0.443D-02-0.751D-01-0.137D+00 0.120D+01
 Gap=     0.360 Goal=   None    Shift=    0.000
 Gap=     0.243 Goal=   None    Shift=    0.000
 RMSDP=1.11D-08 MaxDP=3.25D-07 DE=-4.88D-11 OVMax= 2.77D-06

 Cycle  17  Pass 1  IDiag  1:
 RMSU=  3.19D-09    CP:  1.00D+00  9.52D-01  1.04D+00  1.22D+00  2.11D+00
                    CP:  1.80D+00  1.52D+00  2.18D+00  2.32D+00  2.56D+00
                    CP:  2.60D+00  2.21D+00  1.73D+00  1.62D+00  1.60D+00
                    CP:  1.39D+00
 E= -305.875980881985     Delta-E=       -0.000000000003 Rises=F Damp=F
 DIIS: error= 2.15D-08 at cycle  17 NSaved=  17.
 NSaved=17 IEnMin=17 EnMin= -305.875980881985     IErMin=17 ErrMin= 2.15D-08
 ErrMax= 2.15D-08  0.00D+00 EMaxC= 1.00D-01 BMatC= 3.19D-13 BMatP= 4.10D-12
 IDIUse=1 WtCom= 1.00D+00 WtEn= 0.00D+00
 Coeff-Com: -0.144D-06 0.409D-06 0.407D-05 0.436D-05-0.354D-05-0.764D-04
 Coeff-Com: -0.129D-04 0.316D-03 0.147D-03-0.925D-03-0.153D-02-0.776D-03
 Coeff-Com:  0.803D-02 0.127D-01-0.611D-01-0.209D+00 0.125D+01
 Coeff:     -0.144D-06 0.409D-06 0.407D-05 0.436D-05-0.354D-05-0.764D-04
 Coeff:     -0.129D-04 0.316D-03 0.147D-03-0.925D-03-0.153D-02-0.776D-03
 Coeff:      0.803D-02 0.127D-01-0.611D-01-0.209D+00 0.125D+01
 Gap=     0.360 Goal=   None    Shift=    0.000
 Gap=     0.243 Goal=   None    Shift=    0.000
 RMSDP=2.65D-09 MaxDP=9.57D-08 DE=-3.07D-12 OVMax= 4.40D-07

 SCF Done:  E(UM062X) =  -305.875980882     A.U. after   17 cycles
            NFock= 17  Conv=0.27D-08     -V/T= 2.0052
 <Sx>= 0.0000 <Sy>= 0.0000 <Sz>= 0.5000 <S**2>= 0.7602 S= 0.5051
 <L.S>= 0.000000000000E+00
 KE= 3.042989590181D+02 PE=-1.090929984669D+03 EE= 2.947846081902D+02
 Annihilation of the first spin contaminant:
 S**2 before annihilation     0.7602,   after     0.7500
 Leave Link  502 at Sat Jun 22 12:27:05 2019, MaxMem=   671088640 cpu:             478.7 elap:              24.1
 (Enter /shared/centos7/gaussian/g16/l601.exe)
 Copying SCF densities to generalized density rwf, IOpCl= 1 IROHF=0.

 **********************************************************************

            Population analysis using the SCF density.

 **********************************************************************

 Orbital symmetries:
 Alpha Orbitals:
       Occupied  (A) (A) (A) (A) (A) (A) (A) (A) (A) (A) (A) (A)
                 (A) (A) (A) (A) (A) (A) (A) (A) (A) (A)
       Virtual   (A) (A) (A) (A) (A) (A) (A) (A) (A) (A) (A) (A)
                 (A) (A) (A) (A) (A) (A) (A) (A) (A) (A) (A) (A)
                 (A) (A) (A) (A) (A) (A) (A) (A) (A) (A) (A) (A)
                 (A) (A) (A) (A) (A) (A) (A) (A) (A) (A) (A) (A)
                 (A) (A) (A) (A) (A) (A) (A) (A) (A) (A) (A) (A)
                 (A) (A) (A) (A) (A) (A) (A) (A) (A) (A) (A) (A)
                 (A) (A) (A) (A) (A) (A) (A) (A) (A) (A) (A) (A)
                 (A) (A) (A) (A) (A) (A) (A) (A) (A) (A) (A) (A)
                 (A) (A) (A) (A) (A) (A) (A) (A) (A) (A) (A) (A)
                 (A) (A) (A) (A) (A) (A) (A) (A) (A) (A) (A) (A)
                 (A) (A) (A) (A) (A) (A) (A) (A) (A) (A) (A) (A)
                 (A) (A) (A) (A) (A) (A) (A) (A) (A) (A) (A) (A)
                 (A) (A) (A) (A) (A) (A) (A) (A) (A) (A) (A) (A)
                 (A) (A) (A) (A) (A) (A) (A) (A) (A) (A) (A) (A)
                 (A) (A) (A) (A) (A) (A) (A) (A) (A) (A) (A) (A)
                 (A) (A) (A) (A) (A) (A) (A) (A) (A) (A) (A) (A)
                 (A) (A) (A) (A) (A) (A) (A) (A) (A) (A) (A) (A)
                 (A) (A) (A) (A) (A) (A) (A) (A) (A) (A) (A) (A)
                 (A) (A) (A) (A) (A) (A) (A) (A) (A) (A)
 Beta  Orbitals:
       Occupied  (A) (A) (A) (A) (A) (A) (A) (A) (A) (A) (A) (A)
                 (A) (A) (A) (A) (A) (A) (A) (A) (A)
       Virtual   (A) (A) (A) (A) (A) (A) (A) (A) (A) (A) (A) (A)
                 (A) (A) (A) (A) (A) (A) (A) (A) (A) (A) (A) (A)
                 (A) (A) (A) (A) (A) (A) (A) (A) (A) (A) (A) (A)
                 (A) (A) (A) (A) (A) (A) (A) (A) (A) (A) (A) (A)
                 (A) (A) (A) (A) (A) (A) (A) (A) (A) (A) (A) (A)
                 (A) (A) (A) (A) (A) (A) (A) (A) (A) (A) (A) (A)
                 (A) (A) (A) (A) (A) (A) (A) (A) (A) (A) (A) (A)
                 (A) (A) (A) (A) (A) (A) (A) (A) (A) (A) (A) (A)
                 (A) (A) (A) (A) (A) (A) (A) (A) (A) (A) (A) (A)
                 (A) (A) (A) (A) (A) (A) (A) (A) (A) (A) (A) (A)
                 (A) (A) (A) (A) (A) (A) (A) (A) (A) (A) (A) (A)
                 (A) (A) (A) (A) (A) (A) (A) (A) (A) (A) (A) (A)
                 (A) (A) (A) (A) (A) (A) (A) (A) (A) (A) (A) (A)
                 (A) (A) (A) (A) (A) (A) (A) (A) (A) (A) (A) (A)
                 (A) (A) (A) (A) (A) (A) (A) (A) (A) (A) (A) (A)
                 (A) (A) (A) (A) (A) (A) (A) (A) (A) (A) (A) (A)
                 (A) (A) (A) (A) (A) (A) (A) (A) (A) (A) (A) (A)
                 (A) (A) (A) (A) (A) (A) (A) (A) (A) (A) (A) (A)
                 (A) (A) (A) (A) (A) (A) (A) (A) (A) (A) (A)
 The electronic state is 2-A.
 Alpha  occ. eigenvalues --  -19.71728 -19.71061 -19.61571 -10.59165 -10.56692
 Alpha  occ. eigenvalues --   -1.33576  -1.14120  -1.00233  -0.84893  -0.72399
 Alpha  occ. eigenvalues --   -0.65741  -0.61956  -0.57644  -0.54909  -0.54783
 Alpha  occ. eigenvalues --   -0.51737  -0.45638  -0.42093  -0.40455  -0.39341
 Alpha  occ. eigenvalues --   -0.34051  -0.31597
 Alpha virt. eigenvalues --    0.04380   0.07118   0.10723   0.11262   0.12604
 Alpha virt. eigenvalues --    0.17182   0.18165   0.19610   0.23034   0.24553
 Alpha virt. eigenvalues --    0.29207   0.32132   0.32479   0.37903   0.40839
 Alpha virt. eigenvalues --    0.41851   0.43332   0.43999   0.45100   0.46666
 Alpha virt. eigenvalues --    0.48411   0.50599   0.51011   0.52766   0.54379
 Alpha virt. eigenvalues --    0.55525   0.57565   0.62350   0.64724   0.66632
 Alpha virt. eigenvalues --    0.68355   0.69871   0.70205   0.73935   0.77233
 Alpha virt. eigenvalues --    0.78273   0.81055   0.86444   0.87393   0.89677
 Alpha virt. eigenvalues --    0.91758   0.94269   0.99808   1.01314   1.04555
 Alpha virt. eigenvalues --    1.06017   1.07425   1.09324   1.10499   1.12044
 Alpha virt. eigenvalues --    1.13434   1.14684   1.21117   1.23476   1.26230
 Alpha virt. eigenvalues --    1.28027   1.30210   1.31320   1.33101   1.34441
 Alpha virt. eigenvalues --    1.40760   1.41156   1.44027   1.46693   1.50307
 Alpha virt. eigenvalues --    1.51394   1.57209   1.61437   1.68783   1.73236
 Alpha virt. eigenvalues --    1.75553   1.91137   1.93224   1.95372   1.96831
 Alpha virt. eigenvalues --    1.98810   2.00853   2.08098   2.08682   2.13617
 Alpha virt. eigenvalues --    2.17206   2.22948   2.26090   2.26444   2.30079
 Alpha virt. eigenvalues --    2.36518   2.44973   2.49783   2.51127   2.55226
 Alpha virt. eigenvalues --    2.57154   2.60750   2.63347   2.66473   2.73980
 Alpha virt. eigenvalues --    2.75541   2.80848   2.83713   2.88302   2.91611
 Alpha virt. eigenvalues --    2.92714   2.93905   2.97769   3.00324   3.00965
 Alpha virt. eigenvalues --    3.06829   3.08340   3.13056   3.16243   3.19544
 Alpha virt. eigenvalues --    3.20469   3.22609   3.24380   3.24954   3.27993
 Alpha virt. eigenvalues --    3.30972   3.32235   3.34957   3.35595   3.37373
 Alpha virt. eigenvalues --    3.44109   3.46407   3.47563   3.48743   3.50291
 Alpha virt. eigenvalues --    3.52406   3.56392   3.56833   3.60025   3.65786
 Alpha virt. eigenvalues --    3.70068   3.70183   3.71278   3.73658   3.74968
 Alpha virt. eigenvalues --    3.77330   3.79751   3.80472   3.84195   3.86991
 Alpha virt. eigenvalues --    3.87823   3.89805   3.91726   3.94994   3.96933
 Alpha virt. eigenvalues --    3.97329   4.00347   4.03309   4.04812   4.05649
 Alpha virt. eigenvalues --    4.07321   4.11285   4.15552   4.18421   4.20451
 Alpha virt. eigenvalues --    4.25879   4.28520   4.32223   4.35041   4.38717
 Alpha virt. eigenvalues --    4.40679   4.43329   4.49539   4.57311   4.58249
 Alpha virt. eigenvalues --    4.59604   4.64506   4.73599   4.79550   4.79824
 Alpha virt. eigenvalues --    4.82537   4.85709   4.87648   4.91145   4.95115
 Alpha virt. eigenvalues --    4.96401   4.99822   5.02632   5.06947   5.11567
 Alpha virt. eigenvalues --    5.12338   5.17675   5.24148   5.28132   5.31152
 Alpha virt. eigenvalues --    5.34328   5.46779   5.61605   5.63040   5.66639
 Alpha virt. eigenvalues --    5.69156   5.78313   5.85438   5.96749   6.02536
 Alpha virt. eigenvalues --    6.10895   6.17461   6.22979   6.28141   6.32840
 Alpha virt. eigenvalues --    6.40337   6.40945   6.43594   6.46563   6.53529
 Alpha virt. eigenvalues --    6.56585   6.57032   6.62466   6.64141   6.74790
 Alpha virt. eigenvalues --    6.76090   6.82994   6.85280   6.90177   7.01260
 Alpha virt. eigenvalues --    7.14725   7.20579   7.26594   7.33527   7.49168
 Alpha virt. eigenvalues --    7.68246  10.01641  10.87909  11.62185  11.65313
 Alpha virt. eigenvalues --   12.76333
  Beta  occ. eigenvalues --  -19.71453 -19.70086 -19.61529 -10.59188 -10.56176
  Beta  occ. eigenvalues --   -1.31675  -1.13916  -0.97628  -0.83462  -0.71149
  Beta  occ. eigenvalues --   -0.64188  -0.58778  -0.56224  -0.54408  -0.53219
  Beta  occ. eigenvalues --   -0.50836  -0.45073  -0.39833  -0.38190  -0.36990
  Beta  occ. eigenvalues --   -0.33903
  Beta virt. eigenvalues --   -0.09650   0.04408   0.07117   0.10898   0.11422
  Beta virt. eigenvalues --    0.12636   0.17678   0.18308   0.20168   0.23482
  Beta virt. eigenvalues --    0.24656   0.29139   0.32108   0.32769   0.37977
  Beta virt. eigenvalues --    0.40988   0.41930   0.43541   0.44115   0.45520
  Beta virt. eigenvalues --    0.48031   0.48997   0.51152   0.51800   0.53292
  Beta virt. eigenvalues --    0.54780   0.55986   0.58089   0.62320   0.64785
  Beta virt. eigenvalues --    0.67087   0.68851   0.69973   0.70485   0.74027
  Beta virt. eigenvalues --    0.77305   0.78164   0.81134   0.86505   0.87571
  Beta virt. eigenvalues --    0.89854   0.91952   0.94336   0.99920   1.01531
  Beta virt. eigenvalues --    1.04402   1.06308   1.07577   1.09372   1.10570
  Beta virt. eigenvalues --    1.12681   1.13343   1.14665   1.21251   1.23775
  Beta virt. eigenvalues --    1.26680   1.28221   1.30690   1.31558   1.33654
  Beta virt. eigenvalues --    1.34991   1.41120   1.41417   1.44498   1.47178
  Beta virt. eigenvalues --    1.51440   1.51601   1.57735   1.61841   1.69612
  Beta virt. eigenvalues --    1.73510   1.76646   1.91488   1.94124   1.95449
  Beta virt. eigenvalues --    1.97086   1.99392   2.01308   2.08535   2.09220
  Beta virt. eigenvalues --    2.13714   2.17690   2.22982   2.26451   2.26734
  Beta virt. eigenvalues --    2.30755   2.37581   2.44990   2.50408   2.51859
  Beta virt. eigenvalues --    2.55316   2.58586   2.62029   2.63897   2.66696
  Beta virt. eigenvalues --    2.75567   2.77293   2.81795   2.84425   2.88966
  Beta virt. eigenvalues --    2.91941   2.94322   2.95027   2.99501   3.01324
  Beta virt. eigenvalues --    3.02228   3.08555   3.09889   3.13655   3.17452
  Beta virt. eigenvalues --    3.19846   3.20595   3.23276   3.24894   3.26232
  Beta virt. eigenvalues --    3.28448   3.31762   3.32547   3.35565   3.36250
  Beta virt. eigenvalues --    3.38770   3.44476   3.46637   3.47895   3.49210
  Beta virt. eigenvalues --    3.51244   3.53342   3.56957   3.57250   3.60317
  Beta virt. eigenvalues --    3.66431   3.70416   3.70633   3.71465   3.74273
  Beta virt. eigenvalues --    3.75173   3.77475   3.80018   3.81162   3.84642
  Beta virt. eigenvalues --    3.87094   3.88358   3.90556   3.92280   3.95328
  Beta virt. eigenvalues --    3.97162   3.98053   4.00464   4.03464   4.04852
  Beta virt. eigenvalues --    4.06181   4.07872   4.11829   4.16275   4.19205
  Beta virt. eigenvalues --    4.21155   4.26492   4.29077   4.32900   4.35534
  Beta virt. eigenvalues --    4.39217   4.41056   4.45156   4.50436   4.57777
  Beta virt. eigenvalues --    4.58745   4.60174   4.64685   4.74365   4.80256
  Beta virt. eigenvalues --    4.80773   4.83485   4.86281   4.88943   4.92131
  Beta virt. eigenvalues --    4.95651   4.97006   5.00518   5.03484   5.08304
  Beta virt. eigenvalues --    5.12241   5.12634   5.18814   5.25995   5.29409
  Beta virt. eigenvalues --    5.32307   5.35676   5.50250   5.62421   5.63905
  Beta virt. eigenvalues --    5.68191   5.70121   5.80323   5.85761   5.97081
  Beta virt. eigenvalues --    6.03250   6.12353   6.18055   6.23288   6.28934
  Beta virt. eigenvalues --    6.33184   6.40948   6.41265   6.44020   6.47755
  Beta virt. eigenvalues --    6.54005   6.57359   6.60058   6.64209   6.64591
  Beta virt. eigenvalues --    6.74987   6.77356   6.83572   6.86389   6.90323
  Beta virt. eigenvalues --    7.01352   7.14798   7.20710   7.27196   7.33851
  Beta virt. eigenvalues --    7.49469   7.68435  10.02496  10.88533  11.62525
  Beta virt. eigenvalues --   11.65466  12.77341
          Condensed to atoms (all electrons):
               1          2          3          4          5          6
     1  O    7.870045   0.000074  -0.000069   0.346893  -0.056306  -0.055920
     2  O    0.000074   7.882259   0.025543   0.001052   0.004878  -0.000027
     3  O   -0.000069   0.025543   8.136198   0.000907  -0.090083  -0.000659
     4  C    0.346893   0.001052   0.000907   4.622003   0.308621   0.390482
     5  C   -0.056306   0.004878  -0.090083   0.308621   5.327738  -0.046826
     6  H   -0.055920  -0.000027  -0.000659   0.390482  -0.046826   0.744570
     7  H   -0.054595   0.000026  -0.000007   0.395806  -0.043705  -0.098212
     8  H   -0.002674  -0.022333   0.171653  -0.016547   0.236321   0.006416
     9  H    0.003683   0.000824   0.000875  -0.027427   0.364306   0.003575
    10  H    0.003011   0.001157  -0.004076  -0.035320   0.385718  -0.010743
    11  H    0.345259  -0.000070   0.007785  -0.039184  -0.011825   0.002724
    12  H   -0.000015   0.309362  -0.038496  -0.000078  -0.002209  -0.000029
               7          8          9         10         11         12
     1  O   -0.054595  -0.002674   0.003683   0.003011   0.345259  -0.000015
     2  O    0.000026  -0.022333   0.000824   0.001157  -0.000070   0.309362
     3  O   -0.000007   0.171653   0.000875  -0.004076   0.007785  -0.038496
     4  C    0.395806  -0.016547  -0.027427  -0.035320  -0.039184  -0.000078
     5  C   -0.043705   0.236321   0.364306   0.385718  -0.011825  -0.002209
     6  H   -0.098212   0.006416   0.003575  -0.010743   0.002724  -0.000029
     7  H    0.733971  -0.003629  -0.009026   0.006083   0.005116   0.000010
     8  H   -0.003629   0.451774  -0.009216  -0.014272   0.000175  -0.002912
     9  H   -0.009026  -0.009216   0.582358  -0.036975   0.000178  -0.000233
    10  H    0.006083  -0.014272  -0.036975   0.572514   0.001211   0.000849
    11  H    0.005116   0.000175   0.000178   0.001211   0.421274   0.000251
    12  H    0.000010  -0.002912  -0.000233   0.000849   0.000251   0.461041
          Atomic-Atomic Spin Densities.
               1          2          3          4          5          6
     1  O    0.024557  -0.000048   0.002100   0.003632  -0.009211  -0.002034
     2  O   -0.000048   0.139744  -0.069164  -0.000364   0.016416   0.000026
     3  O    0.002100  -0.069164   0.577920   0.002909  -0.102128  -0.000454
     4  C    0.003632  -0.000364   0.002909  -0.029932  -0.017435   0.006501
     5  C   -0.009211   0.016416  -0.102128  -0.017435   0.675309  -0.006711
     6  H   -0.002034   0.000026  -0.000454   0.006501  -0.006711   0.011347
     7  H   -0.000998   0.000016  -0.000230   0.003838  -0.003336   0.002519
     8  H   -0.000952   0.010001  -0.020898   0.002261   0.045926  -0.000105
     9  H    0.000365  -0.000913   0.003196   0.001617  -0.005726  -0.000955
    10  H    0.000192  -0.000776   0.003393   0.001790  -0.006870  -0.000232
    11  H   -0.003036   0.000316  -0.004483  -0.000286   0.008847   0.000852
    12  H   -0.000003   0.001231  -0.001343  -0.000009   0.000733   0.000004
               7          8          9         10         11         12
     1  O   -0.000998  -0.000952   0.000365   0.000192  -0.003036  -0.000003
     2  O    0.000016   0.010001  -0.000913  -0.000776   0.000316   0.001231
     3  O   -0.000230  -0.020898   0.003196   0.003393  -0.004483  -0.001343
     4  C    0.003838   0.002261   0.001617   0.001790  -0.000286  -0.000009
     5  C   -0.003336   0.045926  -0.005726  -0.006870   0.008847   0.000733
     6  H    0.002519  -0.000105  -0.000955  -0.000232   0.000852   0.000004
     7  H    0.003574   0.000210  -0.000371  -0.000420   0.000371   0.000001
     8  H    0.000210  -0.079235   0.000285   0.001685   0.003110   0.001204
     9  H   -0.000371   0.000285  -0.023787   0.004634  -0.000505  -0.000052
    10  H   -0.000420   0.001685   0.004634  -0.032044  -0.000513  -0.000156
    11  H    0.000371   0.003110  -0.000505  -0.000513  -0.000120  -0.000031
    12  H    0.000001   0.001204  -0.000052  -0.000156  -0.000031  -0.006187
 Mulliken charges and spin densities:
               1          2
     1  O   -0.399385   0.014565
     2  O   -0.202746   0.096487
     3  O   -0.209572   0.390816
     4  C    0.052792  -0.025478
     5  C   -0.376626   0.595813
     6  H    0.064650   0.010757
     7  H    0.068162   0.005172
     8  H    0.205244  -0.036509
     9  H    0.127076  -0.022215
    10  H    0.130842  -0.029317
    11  H    0.267105   0.004519
    12  H    0.272459  -0.004610
 Sum of Mulliken charges =  -0.00000   1.00000
 Mulliken charges and spin densities with hydrogens summed into heavy atoms:
               1          2
     1  O   -0.132281   0.019084
     2  O    0.069713   0.091877
     3  O   -0.004329   0.354308
     4  C    0.185604  -0.009550
     5  C   -0.118708   0.544281
 Electronic spatial extent (au):  <R**2>=            635.7951
 Charge=             -0.0000 electrons
 Dipole moment (field-independent basis, Debye):
    X=             -1.4420    Y=              2.9397    Z=              1.0030  Tot=              3.4245
 Quadrupole moment (field-independent basis, Debye-Ang):
   XX=            -31.3299   YY=            -31.9618   ZZ=            -30.8176
   XY=              0.7668   XZ=             -3.4388   YZ=              0.7421
 Traceless Quadrupole moment (field-independent basis, Debye-Ang):
   XX=              0.0399   YY=             -0.5920   ZZ=              0.5522
   XY=              0.7668   XZ=             -3.4388   YZ=              0.7421
 Octapole moment (field-independent basis, Debye-Ang**2):
  XXX=            -26.2243  YYY=             -4.5450  ZZZ=              1.1190  XYY=             -8.8631
  XXY=             14.2159  XXZ=             11.2635  XZZ=             -4.5230  YZZ=              0.1798
  YYZ=             -0.0861  XYZ=             -2.5730
 Hexadecapole moment (field-independent basis, Debye-Ang**3):
 XXXX=           -526.4593 YYYY=           -152.4421 ZZZZ=            -45.4294 XXXY=            -13.7703
 XXXZ=            -31.4328 YYYX=             -1.1538 YYYZ=             -1.0000 ZZZX=             -2.3675
 ZZZY=              1.0487 XXYY=           -126.8223 XXZZ=            -95.7696 YYZZ=            -31.3362
 XXYZ=              4.7750 YYXZ=             -2.0956 ZZXY=             -1.0206
 N-N= 1.859704365784D+02 E-N=-1.090929984352D+03  KE= 3.042989590181D+02
                          Isotropic Fermi Contact Couplings
        Atom                 a.u.       MegaHertz       Gauss      10(-4) cm-1
     1  O(17)              0.01498      -9.08133      -3.24044      -3.02920
     2  O(17)              0.00770      -4.67042      -1.66652      -1.55789
     3  O(17)              0.11602     -70.33036     -25.09562     -23.45968
     4  C(13)             -0.01478     -16.62013      -5.93048      -5.54388
     5  C(13)              0.19777     222.33166      79.33346      74.16186
     6  H(1)               0.00469      20.95994       7.47903       6.99148
     7  H(1)               0.00149       6.67830       2.38298       2.22764
     8  H(1)              -0.03613    -161.48140     -57.62058     -53.86440
     9  H(1)              -0.00254     -11.36769      -4.05627      -3.79185
    10  H(1)              -0.00701     -31.33351     -11.18058     -10.45173
    11  H(1)              -0.00036      -1.60423      -0.57243      -0.53511
    12  H(1)              -0.00234     -10.46227      -3.73320      -3.48984
 --------------------------------------------------------
       Center         ----  Spin Dipole Couplings  ----
                      3XX-RR        3YY-RR        3ZZ-RR
 --------------------------------------------------------
     1   Atom       -0.024032      0.068462     -0.044430
     2   Atom        0.069017      0.151551     -0.220568
     3   Atom       -0.236397      0.983452     -0.747054
     4   Atom        0.022416     -0.007356     -0.015059
     5   Atom        0.175254      0.108741     -0.283995
     6   Atom        0.006469     -0.004754     -0.001715
     7   Atom        0.008406     -0.005195     -0.003211
     8   Atom        0.079904      0.013162     -0.093066
     9   Atom       -0.019682      0.008500      0.011182
    10   Atom       -0.014986     -0.011008      0.025994
    11   Atom        0.005970      0.007879     -0.013849
    12   Atom        0.003065     -0.002186     -0.000879
 --------------------------------------------------------
                        XY            XZ            YZ
 --------------------------------------------------------
     1   Atom       -0.047267     -0.002937      0.003937
     2   Atom        0.409604     -0.162236     -0.132566
     3   Atom        1.250814     -0.434251     -0.699496
     4   Atom       -0.012104      0.004444     -0.002072
     5   Atom        0.458443      0.118039      0.110372
     6   Atom       -0.002956      0.005970     -0.000086
     7   Atom       -0.003021     -0.005411      0.000384
     8   Atom        0.161899     -0.037315     -0.032078
     9   Atom        0.009692      0.013229     -0.036551
    10   Atom        0.009172     -0.015337      0.031077
    11   Atom       -0.006337     -0.001602      0.000516
    12   Atom       -0.009020     -0.015104      0.015196
 --------------------------------------------------------


 ---------------------------------------------------------------------------------
              Anisotropic Spin Dipole Couplings in Principal Axis System
 ---------------------------------------------------------------------------------

       Atom             a.u.   MegaHertz   Gauss  10(-4) cm-1        Axes

              Baa    -0.0455     3.291     1.174     1.098  0.5642  0.2064  0.7994
     1 O(17)  Bbb    -0.0430     3.113     1.111     1.039  0.7289  0.3302 -0.5997
              Bcc     0.0885    -6.405    -2.285    -2.136 -0.3878  0.9211  0.0358
 
              Baa    -0.3212    23.243     8.294     7.753  0.7091 -0.4659  0.5292
     2 O(17)  Bbb    -0.2547    18.429     6.576     6.147 -0.2592  0.5258  0.8102
              Bcc     0.5759   -41.672   -14.870   -13.900  0.6557  0.7117 -0.2520
 
              Baa    -1.0183    73.682    26.292    24.578  0.8307 -0.5498 -0.0880
     3 O(17)  Bbb    -0.9926    71.825    25.629    23.958  0.2288  0.1929  0.9542
              Bcc     2.0109  -145.508   -51.921   -48.536  0.5076  0.8127 -0.2861
 
              Baa    -0.0157    -2.103    -0.751    -0.702 -0.0689  0.1455  0.9869
     4 C(13)  Bbb    -0.0116    -1.557    -0.556    -0.519  0.3462  0.9313 -0.1132
              Bcc     0.0273     3.661     1.306     1.221  0.9356 -0.3338  0.1145
 
              Baa    -0.3177   -42.630   -15.212   -14.220 -0.6683  0.7395 -0.0810
     5 C(13)  Bbb    -0.3125   -41.938   -14.965   -13.989 -0.1830 -0.0580  0.9814
              Bcc     0.6302    84.568    30.176    28.209  0.7210  0.6707  0.1741
 
              Baa    -0.0063    -3.383    -1.207    -1.129  0.4152  0.7450 -0.5221
     6 H(1)   Bbb    -0.0038    -2.002    -0.714    -0.668 -0.2390  0.6431  0.7276
              Bcc     0.0101     5.385     1.922     1.796  0.8778 -0.1774  0.4451
 
              Baa    -0.0063    -3.361    -1.199    -1.121  0.3509  0.7801  0.5180
     7 H(1)   Bbb    -0.0048    -2.547    -0.909    -0.850  0.1825 -0.5996  0.7792
              Bcc     0.0111     5.908     2.108     1.971  0.9185 -0.1789 -0.3527
 
              Baa    -0.1189   -63.419   -22.629   -21.154 -0.6221  0.7798  0.0699
     8 H(1)   Bbb    -0.1007   -53.737   -19.175   -17.925  0.1649  0.0432  0.9854
              Bcc     0.2196   117.155    41.804    39.079  0.7654  0.6245 -0.1554
 
              Baa    -0.0398   -21.226    -7.574    -7.080  0.6281 -0.5459 -0.5545
     9 H(1)   Bbb    -0.0068    -3.606    -1.287    -1.203  0.7768  0.4808  0.4067
              Bcc     0.0465    24.832     8.861     8.283  0.0446 -0.6862  0.7260
 
              Baa    -0.0391   -20.866    -7.445    -6.960 -0.5561  0.6915 -0.4611
    10 H(1)   Bbb    -0.0059    -3.158    -1.127    -1.053  0.8169  0.5570 -0.1499
              Bcc     0.0450    24.024     8.572     8.013 -0.1532  0.4600  0.8746
 
              Baa    -0.0140    -7.458    -2.661    -2.488  0.0800 -0.0004  0.9968
    11 H(1)   Bbb     0.0006     0.303     0.108     0.101  0.7521  0.6563 -0.0601
              Bcc     0.0134     7.155     2.553     2.387 -0.6542  0.7545  0.0528
 
              Baa    -0.0180    -9.630    -3.436    -3.212  0.3107 -0.5594  0.7684
    12 H(1)   Bbb    -0.0084    -4.481    -1.599    -1.495  0.7401  0.6497  0.1737
              Bcc     0.0264    14.111     5.035     4.707 -0.5964  0.5147  0.6159
 

 ---------------------------------------------------------------------------------

 No NMR shielding tensors so no spin-rotation constants.
 Leave Link  601 at Sat Jun 22 12:27:05 2019, MaxMem=   671088640 cpu:               6.0 elap:               0.3
 (Enter /shared/centos7/gaussian/g16/l701.exe)
 ... and contract with generalized density number  0.
 Compute integral first derivatives.
 Leave Link  701 at Sat Jun 22 12:27:05 2019, MaxMem=   671088640 cpu:               6.5 elap:               0.4
 (Enter /shared/centos7/gaussian/g16/l702.exe)
 L702 exits ... SP integral derivatives will be done elsewhere.
 Leave Link  702 at Sat Jun 22 12:27:06 2019, MaxMem=   671088640 cpu:               0.9 elap:               0.1
 (Enter /shared/centos7/gaussian/g16/l703.exe)
 Integral derivatives from FoFJK, PRISM(SPDF).
 Compute integral first derivatives, UseDBF=F ICtDFT=           0.
 Calling FoFJK, ICntrl=      2127 FMM=F ISym2X=0 I1Cent= 0 IOpClX= 1 NMat=1 NMatS=1 NMatT=0.
 FoFJK:  IHMeth= 1 ICntrl=    2127 DoSepK=F KAlg= 0 I1Cent=           0 FoldK=F
 IRaf=         0 NMat=       1 IRICut=       1 DoRegI=T DoRafI=F ISym2E= 0 IDoP0=0 IntGTp=1.
 FoFCou: FMM=F IPFlag=           0 FMFlag=      100000 FMFlg1=         800
         NFxFlg=           0 DoJE=F BraDBF=F KetDBF=F FulRan=T
         wScrn=  0.000000 ICntrl=      2127 IOpCl=  1 I1Cent=           0 NGrid=           0
         NMat0=    1 NMatS0=      1 NMatT0=    0 NMatD0=    1 NMtDS0=    0 NMtDT0=    0
 Symmetry not used in FoFCou.
 Leave Link  703 at Sat Jun 22 12:27:10 2019, MaxMem=   671088640 cpu:              93.0 elap:               4.7
 (Enter /shared/centos7/gaussian/g16/l716.exe)
 Dipole        =-5.67312117D-01 1.15656797D+00 3.94594213D-01
 ***** Axes restored to original set *****
 -------------------------------------------------------------------
 Center     Atomic                   Forces (Hartrees/Bohr)
 Number     Number              X              Y              Z
 -------------------------------------------------------------------
      1        8           0.010447571   -0.007376542    0.034777859
      2        8           0.047413964    0.025819092    0.030494031
      3        8          -0.026949193   -0.030668820   -0.024107408
      4        6          -0.000076230    0.008820091   -0.015192624
      5        6           0.009211481    0.017274432   -0.013574250
      6        1          -0.002826885    0.004672729    0.009574511
      7        1           0.006591283   -0.006288989    0.004938850
      8        1           0.002472526    0.000815961   -0.021285818
      9        1           0.002847403   -0.013611261    0.004300446
     10        1          -0.012736336    0.002699961    0.008509383
     11        1          -0.017003296   -0.004328881   -0.026784831
     12        1          -0.019392287    0.002172227    0.008349850
 -------------------------------------------------------------------
 Cartesian Forces:  Max     0.047413964 RMS     0.017448421
 Leave Link  716 at Sat Jun 22 12:27:10 2019, MaxMem=   671088640 cpu:               0.6 elap:               0.0
 (Enter /shared/centos7/gaussian/g16/l103.exe)

 GradGradGradGradGradGradGradGradGradGradGradGradGradGradGradGradGradGrad
 Berny optimization.
 FormGI is forming the generalized inverse of G from B-inverse, IUseBI=4.
 Internal  Forces:  Max     0.055396860 RMS     0.011970058
 Search for a local minimum.
 Step number   1 out of a maximum of  100
 All quantities printed in internal units (Hartrees-Bohrs-Radians)
 RMS Force = .11924D-01 SwitMx=.10000D-02 MixMth= 1
 Mixed Optimization -- RFO/linear search
 Second derivative matrix not updated -- first step.
 ITU=  0
     Eigenvalues ---    0.00230   0.00230   0.00467   0.01676   0.02406
     Eigenvalues ---    0.04749   0.04807   0.05113   0.05879   0.11504
     Eigenvalues ---    0.11885   0.13589   0.14104   0.16000   0.16000
     Eigenvalues ---    0.16000   0.16000   0.22015   0.30117   0.32243
     Eigenvalues ---    0.32527   0.32556   0.32557   0.45426   0.48963
     Eigenvalues ---    0.49446   0.629321000.000001000.000001000.00000
     Eigenvalues --- 1000.000001000.000001000.000001000.000001000.00000
     Eigenvalues --- 1000.000001000.000001000.000001000.000001000.00000
     Eigenvalues --- 1000.000001000.000001000.000001000.00000
 RFO step:  Lambda=-1.32408467D-02 EMin= 2.30000000D-03
 Linear search not attempted -- first point.
 Iteration  1 RMS(Cart)=  0.06842021 RMS(Int)=  0.00238627
 Iteration  2 RMS(Cart)=  0.00282824 RMS(Int)=  0.00042222
 Iteration  3 RMS(Cart)=  0.00000535 RMS(Int)=  0.00042219
 Iteration  4 RMS(Cart)=  0.00000000 RMS(Int)=  0.00042219
 Iteration  1 RMS(Cart)=  0.00000000 RMS(Int)=  0.00000000
 ITry= 1 IFail=0 DXMaxC= 2.69D-01 DCOld= 1.00D+10 DXMaxT= 3.00D-01 DXLimC= 3.00D+00 Rises=F
 Variable       Old X    -DE/DX   Delta X   Delta X   Delta X     New X
                                 (Linear)    (Quad)   (Total)
    R1        2.64785   0.01560   0.00000   0.03337   0.03337   2.68122
    R2        1.87627  -0.03131   0.00000  -0.06226  -0.06226   1.81401
    R3        2.48693   0.05540   0.00000   0.08621   0.08621   2.57314
    R4        1.87128  -0.02099   0.00000  -0.04134  -0.04134   1.82994
    R5        2.20171   0.01220   0.00000   0.00000  -0.00000   2.20171
    R6        2.87731   0.00038   0.00000   0.00122   0.00122   2.87853
    R7        2.10402  -0.01088   0.00000  -0.03241  -0.03241   2.07160
    R8        2.09838  -0.01022   0.00000  -0.03017  -0.03017   2.06820
    R9        2.58653  -0.00579   0.00000   0.00000   0.00000   2.58653
   R10        2.09890  -0.01375   0.00000  -0.04062  -0.04062   2.05827
   R11        2.09837  -0.01490   0.00000  -0.04398  -0.04398   2.05439
    A1        1.87227   0.01255   0.00000   0.07245   0.07245   1.94472
    A2        1.81706   0.00567   0.00000   0.03273   0.03273   1.84980
    A3        1.82662   0.00728   0.00000   0.04200   0.04200   1.86863
    A4        1.98400   0.00912   0.00000   0.03969   0.03978   2.02378
    A5        1.89519  -0.00251   0.00000  -0.00940  -0.00921   1.88598
    A6        1.89670  -0.00273   0.00000  -0.00748  -0.00748   1.88923
    A7        1.91577  -0.00370   0.00000  -0.02051  -0.02051   1.89526
    A8        1.91340  -0.00271   0.00000  -0.01176  -0.01187   1.90153
    A9        1.85416   0.00211   0.00000   0.00761   0.00741   1.86158
   A10        1.91291  -0.00383   0.00000  -0.03514  -0.03476   1.87815
   A11        1.97933   0.00402   0.00000   0.03155   0.03027   2.00960
   A12        1.98092   0.00339   0.00000   0.03229   0.03127   2.01219
   A13        1.84160  -0.00234   0.00000  -0.03298  -0.03259   1.80901
   A14        1.80092  -0.00087   0.00000  -0.01659  -0.01609   1.78482
   A15        1.93406  -0.00142   0.00000   0.00935   0.00770   1.94176
   A16        2.57620   0.01709   0.00000   0.00000   0.00000   2.57620
    D1       -0.02073   0.00017   0.00000  -0.00259  -0.00258  -0.02331
    D2        2.11694  -0.00025   0.00000  -0.00894  -0.00893   2.10802
    D3       -2.15647  -0.00054   0.00000  -0.00891  -0.00894  -2.16541
    D4       -1.68001  -0.00215   0.00000  -0.05764  -0.05764  -1.73764
    D5        2.10662   0.00123   0.00000   0.07899   0.07899   2.18562
    D6       -0.12705  -0.00113   0.00000  -0.03746  -0.03751  -0.16455
    D7       -2.17988   0.00188   0.00000   0.00791   0.00838  -2.17149
    D8        1.87593  -0.00266   0.00000  -0.06150  -0.06206   1.81388
    D9       -2.25334  -0.00148   0.00000  -0.03772  -0.03762  -2.29095
   D10        1.97702   0.00153   0.00000   0.00765   0.00827   1.98529
   D11       -0.25036  -0.00302   0.00000  -0.06176  -0.06217  -0.31252
   D12        1.99945  -0.00033   0.00000  -0.02832  -0.02839   1.97106
   D13       -0.05338   0.00267   0.00000   0.01705   0.01750  -0.03588
   D14       -2.28076  -0.00187   0.00000  -0.05236  -0.05294  -2.33369
   D15        1.52318   0.00000   0.00000  -0.00212  -0.00235   1.52083
   D16       -2.62290   0.00129   0.00000  -0.00358  -0.00323  -2.62613
   D17       -0.59229  -0.00159   0.00000  -0.01341  -0.01353  -0.60581
         Item               Value     Threshold  Converged?
 Maximum Force            0.055397     0.002500     NO 
 RMS     Force            0.011924     0.001667     NO 
 Maximum Displacement     0.268866     0.010000     NO 
 RMS     Displacement     0.068136     0.006667     NO 
 Predicted change in Energy=-7.028571D-03
 Lowest energy point so far.  Saving SCF results.
 GradGradGradGradGradGradGradGradGradGradGradGradGradGradGradGradGradGrad

 Leave Link  103 at Sat Jun 22 12:27:10 2019, MaxMem=   671088640 cpu:               0.5 elap:               0.1
 (Enter /shared/centos7/gaussian/g16/l202.exe)
                          Input orientation:                          
 ---------------------------------------------------------------------
 Center     Atomic      Atomic             Coordinates (Angstroms)
 Number     Number       Type             X           Y           Z
 ---------------------------------------------------------------------
      1          8           0       -2.622731    0.111713    0.854066
      2          8           0        0.044925    1.429488    3.967310
      3          8           0       -0.545597    0.720204    2.966169
      4          6           0       -1.982525    1.146544    0.124430
      5          6           0       -0.868995    1.886410    0.854458
      6          1           0       -1.569585    0.710403   -0.792639
      7          1           0       -2.744239    1.868216   -0.186688
      8          1           0       -0.896636    1.488615    2.163820
      9          1           0       -0.991505    2.967183    0.911554
     10          1           0        0.140973    1.619632    0.553355
     11          1           0       -2.236949    0.007705    1.726890
     12          1           0        0.998836    1.362957    3.814495
 ---------------------------------------------------------------------
                    Distance matrix (angstroms):
                    1          2          3          4          5
     1  O    0.000000
     2  O    4.306415   0.000000
     3  O    3.024190   1.361648   0.000000
     4  C    1.418840   4.354118   3.212788   0.000000
     5  C    2.495023   3.276259   2.433915   1.523251   0.000000
     6  H    2.044305   5.077484   3.895803   1.096245   2.141669
     7  H    2.045295   5.022710   4.011541   1.094447   2.144961
     8  H    2.567239   2.035341   1.165096   2.335653   1.368733
     9  H    3.289059   3.574401   3.077205   2.217298   1.089192
    10  H    3.162642   3.420595   2.664961   2.217438   1.087137
    11  H    0.959932   3.499700   2.214529   1.982313   2.482331
    12  H    4.842055   0.968362   1.875650   4.748887   3.539013
                    6          7          8          9         10
     6  H    0.000000
     7  H    1.757134   0.000000
     8  H    3.130355   3.013738   0.000000
     9  H    2.886434   2.342208   1.939931   0.000000
    10  H    2.358899   2.988964   1.920259   1.796303   0.000000
    11  H    2.699479   2.716731   2.044613   3.312765   3.103225
    12  H    5.314913   5.502305   2.516612   3.868083   3.381840
                   11         12
    11  H    0.000000
    12  H    4.082292   0.000000
 Stoichiometry    C2H7O3(2)
 Framework group  C1[X(C2H7O3)]
 Deg. of freedom    30
 Full point group                 C1      NOp   1
 RotChk:  IX=0 Diff= 7.82D-03
 Largest Abelian subgroup         C1      NOp   1
 Largest concise Abelian subgroup C1      NOp   1
                         Standard orientation:                         
 ---------------------------------------------------------------------
 Center     Atomic      Atomic             Coordinates (Angstroms)
 Number     Number       Type             X           Y           Z
 ---------------------------------------------------------------------
      1          8           0        1.662837   -1.089556   -0.047173
      2          8           0       -2.510718   -0.041317   -0.214021
      3          8           0       -1.285214   -0.463422    0.203174
      4          6           0        1.823523    0.319613   -0.008054
      5          6           0        0.538222    1.136938    0.008573
      6          1           0        2.408649    0.570276    0.884442
      7          1           0        2.424602    0.620050   -0.871914
      8          1           0       -0.500912    0.279501   -0.233157
      9          1           0        0.450416    1.877440   -0.785333
     10          1           0        0.269119    1.559679    0.973322
     11          1           0        0.735433   -1.337125   -0.037166
     12          1           0       -2.893015    0.445240    0.530852
 ---------------------------------------------------------------------
 Rotational constants (GHZ):           9.5973626           2.0974707           1.7805713
 Leave Link  202 at Sat Jun 22 12:27:10 2019, MaxMem=   671088640 cpu:               1.8 elap:               0.1
 (Enter /shared/centos7/gaussian/g16/l301.exe)
 Standard basis: CC-pVTZ (5D, 7F)
 Ernie: Thresh=  0.10000D-02 Tol=  0.10000D-05 Strict=F.
 Ernie:  15 primitive shells out of 186 were deleted.
 There are   280 symmetry adapted cartesian basis functions of A   symmetry.
 There are   248 symmetry adapted basis functions of A   symmetry.
   248 basis functions,   379 primitive gaussians,   280 cartesian basis functions
    22 alpha electrons       21 beta electrons
       nuclear repulsion energy       184.5150450979 Hartrees.
 IExCor= 4336 DFT=T Ex+Corr=M062X ExCW=0 ScaHFX=  0.540000
 ScaDFX=  1.000000  1.000000  1.000000  1.000000 ScalE2=  1.000000  1.000000
 IRadAn=      1 IRanWt=     -1 IRanGd=            0 ICorTp=0 IEmpDi=  4
 NAtoms=   12 NActive=   12 NUniq=   12 SFac= 1.00D+00 NAtFMM=   60 NAOKFM=F Big=F
 Integral buffers will be    131072 words long.
 Raffenetti 2 integral format.
 Two-electron integral symmetry is turned on.
 Leave Link  301 at Sat Jun 22 12:27:11 2019, MaxMem=   671088640 cpu:               1.1 elap:               0.1
 (Enter /shared/centos7/gaussian/g16/l302.exe)
 NPDir=0 NMtPBC=     1 NCelOv=     1 NCel=       1 NClECP=     1 NCelD=      1
         NCelK=      1 NCelE2=     1 NClLst=     1 CellRange=     0.0.
 One-electron integrals computed using PRISM.
 One-electron integral symmetry used in STVInt
 NBasis=   248 RedAO= T EigKep=  6.78D-04  NBF=   248
 NBsUse=   248 1.00D-06 EigRej= -1.00D+00 NBFU=   248
 Precomputing XC quadrature grid using
 IXCGrd= 4 IRadAn=           1 IRanWt=          -1 IRanGd=           0 AccXCQ= 0.00D+00.
 Generated NRdTot=       0 NPtTot=           0 NUsed=           0 NTot=          32
 NSgBfM=   280   280   280   280   280 MxSgAt=    12 MxSgA2=    12.
 Leave Link  302 at Sat Jun 22 12:27:11 2019, MaxMem=   671088640 cpu:               4.2 elap:               0.2
 (Enter /shared/centos7/gaussian/g16/l303.exe)
 DipDrv:  MaxL=1.
 Leave Link  303 at Sat Jun 22 12:27:11 2019, MaxMem=   671088640 cpu:               1.3 elap:               0.1
 (Enter /shared/centos7/gaussian/g16/l401.exe)
 Initial guess from the checkpoint file:  "/scratch/harms.n/gauss_scrdir/Gau-31942.chk"
 B after Tr=    -0.000000    0.000000    0.000000
         Rot=    0.999995    0.003148   -0.000904   -0.000127 Ang=   0.38 deg.
 Guess basis will be translated and rotated to current coordinates.
 JPrj=2 DoOrth=T DoCkMO=T.
 Initial guess <Sx>= 0.0000 <Sy>= 0.0000 <Sz>= 0.5000 <S**2>= 0.7602 S= 0.5051
 Generating alternative initial guess.
 ExpMin= 1.03D-01 ExpMax= 1.53D+04 ExpMxC= 5.22D+02 IAcc=1 IRadAn=         1 AccDes= 0.00D+00
 Harris functional with IExCor= 1009 and IRadAn=       1 diagonalized for initial guess.
 HarFok:  IExCor= 1009 AccDes= 0.00D+00 IRadAn=         1 IDoV= 1 UseB2=F ITyADJ=14
 ICtDFT=  3500011 ScaDFX=  1.000000  1.000000  1.000000  1.000000
 FoFCou: FMM=F IPFlag=           0 FMFlag=      100000 FMFlg1=           0
         NFxFlg=           0 DoJE=T BraDBF=F KetDBF=T FulRan=T
         wScrn=  0.000000 ICntrl=       500 IOpCl=  0 I1Cent=   200000004 NGrid=           0
         NMat0=    1 NMatS0=      1 NMatT0=    0 NMatD0=    1 NMtDS0=    0 NMtDT0=    0
 Petite list used in FoFCou.
 Harris En= -305.769962843108    
 Leave Link  401 at Sat Jun 22 12:27:11 2019, MaxMem=   671088640 cpu:              10.3 elap:               0.5
 (Enter /shared/centos7/gaussian/g16/l502.exe)
 Integral symmetry usage will be decided dynamically.
 UHF open shell SCF:
 Using DIIS extrapolation, IDIIS=  1040.
 NGot=   671088640 LenX=   670923676 LenY=   670844835
 Requested convergence on RMS density matrix=1.00D-08 within 900 cycles.
 Requested convergence on MAX density matrix=1.00D-06.
 Requested convergence on             energy=1.00D-06.
 No special actions if energy rises.
 Fock matrices will be formed incrementally for  20 cycles.

 Cycle   1  Pass 1  IDiag  1:
 FoFJK:  IHMeth= 1 ICntrl=       0 DoSepK=F KAlg= 0 I1Cent=           0 FoldK=F
 IRaf= 960000000 NMat=       1 IRICut=       1 DoRegI=T DoRafI=F ISym2E= 0 IDoP0=0 IntGTp=1.
 FoFCou: FMM=F IPFlag=           0 FMFlag=      100000 FMFlg1=           0
         NFxFlg=           0 DoJE=F BraDBF=F KetDBF=F FulRan=T
         wScrn=  0.000000 ICntrl=         0 IOpCl=  1 I1Cent=           0 NGrid=           0
         NMat0=    1 NMatS0=      1 NMatT0=    0 NMatD0=    1 NMtDS0=    0 NMtDT0=    0
 Symmetry not used in FoFCou.
 E= -305.875415537672    
 DIIS: error= 3.22D-03 at cycle   1 NSaved=   1.
 NSaved= 1 IEnMin= 1 EnMin= -305.875415537672     IErMin= 1 ErrMin= 3.22D-03
 ErrMax= 3.22D-03  0.00D+00 EMaxC= 1.00D-01 BMatC= 2.31D-02 BMatP= 2.31D-02
 IDIUse=3 WtCom= 9.68D-01 WtEn= 3.22D-02
 Coeff-Com:  0.100D+01
 Coeff-En:   0.100D+01
 Coeff:      0.100D+01
 Gap=     0.815 Goal=   None    Shift=    0.000
 Gap=     0.771 Goal=   None    Shift=    0.000
 GapD=    0.771 DampG=2.000 DampE=1.000 DampFc=2.0000 IDamp=-1.
 RMSDP=2.92D-04 MaxDP=6.91D-03              OVMax= 2.62D-02

 Cycle   2  Pass 1  IDiag  1:
 RMSU=  2.91D-04    CP:  9.99D-01
 E= -305.882665045471     Delta-E=       -0.007249507799 Rises=F Damp=F
 DIIS: error= 7.83D-04 at cycle   2 NSaved=   2.
 NSaved= 2 IEnMin= 2 EnMin= -305.882665045471     IErMin= 2 ErrMin= 7.83D-04
 ErrMax= 7.83D-04  0.00D+00 EMaxC= 1.00D-01 BMatC= 9.33D-04 BMatP= 2.31D-02
 IDIUse=3 WtCom= 9.92D-01 WtEn= 7.83D-03
 Coeff-Com: -0.728D-01 0.107D+01
 Coeff-En:   0.000D+00 0.100D+01
 Coeff:     -0.723D-01 0.107D+01
 Gap=     0.365 Goal=   None    Shift=    0.000
 Gap=     0.244 Goal=   None    Shift=    0.000
 RMSDP=8.90D-05 MaxDP=2.58D-03 DE=-7.25D-03 OVMax= 1.05D-02

 Cycle   3  Pass 1  IDiag  1:
 RMSU=  6.64D-05    CP:  9.99D-01  1.20D+00
 E= -305.883083026873     Delta-E=       -0.000417981401 Rises=F Damp=F
 DIIS: error= 6.08D-04 at cycle   3 NSaved=   3.
 NSaved= 3 IEnMin= 3 EnMin= -305.883083026873     IErMin= 3 ErrMin= 6.08D-04
 ErrMax= 6.08D-04  0.00D+00 EMaxC= 1.00D-01 BMatC= 5.00D-04 BMatP= 9.33D-04
 IDIUse=3 WtCom= 9.94D-01 WtEn= 6.08D-03
 Coeff-Com: -0.625D-01 0.452D+00 0.610D+00
 Coeff-En:   0.000D+00 0.000D+00 0.100D+01
 Coeff:     -0.622D-01 0.449D+00 0.613D+00
 Gap=     0.364 Goal=   None    Shift=    0.000
 Gap=     0.248 Goal=   None    Shift=    0.000
 RMSDP=3.37D-05 MaxDP=1.01D-03 DE=-4.18D-04 OVMax= 3.31D-03

 Cycle   4  Pass 1  IDiag  1:
 RMSU=  3.13D-05    CP:  9.99D-01  1.24D+00  9.13D-01
 E= -305.883174099502     Delta-E=       -0.000091072629 Rises=F Damp=F
 DIIS: error= 2.08D-04 at cycle   4 NSaved=   4.
 NSaved= 4 IEnMin= 4 EnMin= -305.883174099502     IErMin= 4 ErrMin= 2.08D-04
 ErrMax= 2.08D-04  0.00D+00 EMaxC= 1.00D-01 BMatC= 8.82D-05 BMatP= 5.00D-04
 IDIUse=3 WtCom= 9.98D-01 WtEn= 2.08D-03
 Coeff-Com: -0.140D-01-0.201D-01 0.276D+00 0.758D+00
 Coeff-En:   0.000D+00 0.000D+00 0.000D+00 0.100D+01
 Coeff:     -0.140D-01-0.200D-01 0.275D+00 0.759D+00
[...]
 Alpha virt. eigenvalues --    3.30911   3.34239   3.38035   3.38880   3.42863
 Alpha virt. eigenvalues --    3.43949   3.45425   3.49419   3.50299   3.54706
 Alpha virt. eigenvalues --    3.55910   3.56841   3.61606   3.62866   3.71067
 Alpha virt. eigenvalues --    3.71939   3.73974   3.74158   3.75440   3.79361
 Alpha virt. eigenvalues --    3.80379   3.83674   3.86039   3.87649   3.88367
 Alpha virt. eigenvalues --    3.90417   3.92013   3.93357   3.96954   3.99335
 Alpha virt. eigenvalues --    4.00655   4.04726   4.06500   4.07831   4.09900
 Alpha virt. eigenvalues --    4.12684   4.15438   4.17987   4.20801   4.24565
 Alpha virt. eigenvalues --    4.27793   4.28377   4.34010   4.37985   4.40977
 Alpha virt. eigenvalues --    4.44272   4.49358   4.55801   4.58379   4.67204
 Alpha virt. eigenvalues --    4.70941   4.73079   4.77400   4.80650   4.81923
 Alpha virt. eigenvalues --    4.85101   4.89524   4.93927   4.95629   5.00397
 Alpha virt. eigenvalues --    5.01058   5.05312   5.06760   5.11740   5.12236
 Alpha virt. eigenvalues --    5.14678   5.22586   5.31113   5.33130   5.38817
 Alpha virt. eigenvalues --    5.42837   5.48474   5.57520   5.58099   5.70176
 Alpha virt. eigenvalues --    5.74000   5.76577   5.86040   5.92252   5.97792
 Alpha virt. eigenvalues --    6.11694   6.15876   6.19982   6.31008   6.34540
 Alpha virt. eigenvalues --    6.37531   6.45607   6.48876   6.52014   6.56012
 Alpha virt. eigenvalues --    6.60539   6.65952   6.66709   6.70790   6.75193
 Alpha virt. eigenvalues --    6.78217   6.83742   6.86344   6.89091   7.01721
 Alpha virt. eigenvalues --    7.14002   7.16462   7.21111   7.39114   7.44005
 Alpha virt. eigenvalues --    7.58256  10.02295  11.22665  12.03085  12.07947
 Alpha virt. eigenvalues --   12.88044
  Beta  occ. eigenvalues --  -19.69956 -19.69218 -19.61010 -10.58816 -10.55689
  Beta  occ. eigenvalues --   -1.26528  -1.14000  -0.98477  -0.84413  -0.70668
  Beta  occ. eigenvalues --   -0.62606  -0.58707  -0.55796  -0.53001  -0.51885
  Beta  occ. eigenvalues --   -0.49244  -0.46384  -0.40671  -0.37997  -0.37662
  Beta  occ. eigenvalues --   -0.34900
  Beta virt. eigenvalues --   -0.08571   0.05264   0.08390   0.10549   0.12179
  Beta virt. eigenvalues --    0.13023   0.14423   0.15344   0.20118   0.21680
  Beta virt. eigenvalues --    0.26633   0.28738   0.30356   0.36282   0.37913
  Beta virt. eigenvalues --    0.39619   0.43053   0.43949   0.46461   0.47235
  Beta virt. eigenvalues --    0.48964   0.50306   0.50503   0.52056   0.53029
  Beta virt. eigenvalues --    0.56155   0.57060   0.60032   0.64060   0.66521
  Beta virt. eigenvalues --    0.67899   0.68351   0.71114   0.73219   0.76984
  Beta virt. eigenvalues --    0.78047   0.78594   0.83216   0.85679   0.89395
  Beta virt. eigenvalues --    0.90741   0.92928   0.93149   0.99431   1.02084
  Beta virt. eigenvalues --    1.04493   1.05720   1.09131   1.13549   1.15329
  Beta virt. eigenvalues --    1.16139   1.18081   1.18979   1.20935   1.24189
  Beta virt. eigenvalues --    1.26986   1.30658   1.31412   1.33292   1.35681
  Beta virt. eigenvalues --    1.36914   1.40686   1.43865   1.47125   1.49431
  Beta virt. eigenvalues --    1.52443   1.54770   1.59517   1.64520   1.69270
  Beta virt. eigenvalues --    1.71206   1.78706   1.86774   1.93576   1.96246
  Beta virt. eigenvalues --    2.02347   2.02799   2.06995   2.10761   2.12491
  Beta virt. eigenvalues --    2.17922   2.19827   2.23627   2.25594   2.32397
  Beta virt. eigenvalues --    2.35231   2.41507   2.43058   2.48139   2.53055
  Beta virt. eigenvalues --    2.54211   2.59423   2.63916   2.66692   2.72939
  Beta virt. eigenvalues --    2.74552   2.76181   2.84569   2.88271   2.92765
  Beta virt. eigenvalues --    2.93055   2.95866   2.99516   3.01155   3.02592
  Beta virt. eigenvalues --    3.04847   3.08700   3.10522   3.12149   3.16097
  Beta virt. eigenvalues --    3.18540   3.20292   3.21725   3.26808   3.27612
  Beta virt. eigenvalues --    3.29249   3.31346   3.35175   3.38472   3.39627
  Beta virt. eigenvalues --    3.43304   3.44755   3.45712   3.49881   3.51133
  Beta virt. eigenvalues --    3.55111   3.56312   3.57365   3.62492   3.64018
  Beta virt. eigenvalues --    3.71302   3.72194   3.74286   3.74435   3.75758
  Beta virt. eigenvalues --    3.79708   3.80637   3.84546   3.86290   3.87763
  Beta virt. eigenvalues --    3.89121   3.90739   3.92935   3.93885   3.97057
  Beta virt. eigenvalues --    3.99663   4.00908   4.05400   4.06863   4.08493
  Beta virt. eigenvalues --    4.10436   4.13414   4.15793   4.19124   4.21076
  Beta virt. eigenvalues --    4.25167   4.28006   4.28954   4.34767   4.38547
  Beta virt. eigenvalues --    4.42008   4.44668   4.50758   4.57445   4.58930
  Beta virt. eigenvalues --    4.67985   4.71387   4.74494   4.78507   4.82003
  Beta virt. eigenvalues --    4.82410   4.85870   4.90096   4.95411   4.97549
  Beta virt. eigenvalues --    5.01334   5.02662   5.06109   5.07920   5.11974
  Beta virt. eigenvalues --    5.13471   5.16113   5.23435   5.33733   5.35840
  Beta virt. eigenvalues --    5.39531   5.44800   5.51818   5.57931   5.59040
  Beta virt. eigenvalues --    5.71939   5.75718   5.78157   5.86049   5.92598
  Beta virt. eigenvalues --    5.98128   6.12453   6.17952   6.20170   6.31561
  Beta virt. eigenvalues --    6.34972   6.37733   6.46311   6.48985   6.52847
  Beta virt. eigenvalues --    6.57744   6.61418   6.65984   6.67486   6.71362
  Beta virt. eigenvalues --    6.75383   6.79141   6.84046   6.87132   6.89638
  Beta virt. eigenvalues --    7.01881   7.14038   7.16538   7.21500   7.39124
  Beta virt. eigenvalues --    7.44324   7.58336  10.03000  11.22826  12.03181
  Beta virt. eigenvalues --   12.08727  12.88743
          Condensed to atoms (all electrons):
               1          2          3          4          5          6
     1  O    7.872350   0.000591  -0.007576   0.327219  -0.057341  -0.033449
     2  O    0.000591   7.900530   0.046509  -0.005590   0.001347   0.000458
     3  O   -0.007576   0.046509   8.122908  -0.004689  -0.081921  -0.000138
     4  C    0.327219  -0.005590  -0.004689   4.752690   0.294151   0.394042
     5  C   -0.057341   0.001347  -0.081921   0.294151   5.359872  -0.035530
     6  H   -0.033449   0.000458  -0.000138   0.394042  -0.035530   0.599112
     7  H   -0.046097   0.013622  -0.004748   0.407034  -0.063818  -0.052126
     8  H    0.000540  -0.022025   0.182597  -0.007842   0.210783   0.004455
     9  H    0.005985  -0.000747   0.001870  -0.034659   0.363361  -0.004111
    10  H    0.003666   0.001066  -0.000616  -0.033815   0.381149  -0.006667
    11  H    0.334231  -0.001588   0.020418  -0.044119  -0.000820   0.008125
    12  H    0.000122   0.308487  -0.027791  -0.000959   0.001084  -0.000022
               7          8          9         10         11         12
     1  O   -0.046097   0.000540   0.005985   0.003666   0.334231   0.000122
     2  O    0.013622  -0.022025  -0.000747   0.001066  -0.001588   0.308487
     3  O   -0.004748   0.182597   0.001870  -0.000616   0.020418  -0.027791
     4  C    0.407034  -0.007842  -0.034659  -0.033815  -0.044119  -0.000959
     5  C   -0.063818   0.210783   0.363361   0.381149  -0.000820   0.001084
     6  H   -0.052126   0.004455  -0.004111  -0.006667   0.008125  -0.000022
     7  H    0.634337  -0.007344   0.003990   0.009487  -0.008303  -0.001374
     8  H   -0.007344   0.435957  -0.012614  -0.012400   0.000019  -0.006326
     9  H    0.003990  -0.012614   0.567477  -0.024315   0.000073   0.000460
    10  H    0.009487  -0.012400  -0.024315   0.526896  -0.001387  -0.000062
    11  H   -0.008303   0.000019   0.000073  -0.001387   0.428907   0.000600
    12  H   -0.001374  -0.006326   0.000460  -0.000062   0.000600   0.449732
          Atomic-Atomic Spin Densities.
               1          2          3          4          5          6
     1  O    0.000235  -0.000032   0.000557   0.003701  -0.000301  -0.002203
     2  O   -0.000032   0.058117  -0.041585  -0.004385   0.016723   0.000367
     3  O    0.000557  -0.041585   0.534160   0.014444  -0.110173  -0.001135
     4  C    0.003701  -0.004385   0.014444  -0.023786  -0.047998   0.009800
     5  C   -0.000301   0.016723  -0.110173  -0.047998   0.758877  -0.017089
     6  H   -0.002203   0.000367  -0.001135   0.009800  -0.017089   0.055939
     7  H    0.000222  -0.002367   0.002225   0.008675  -0.006422  -0.004841
     8  H   -0.000387   0.010818  -0.048569  -0.006693   0.085780   0.000923
     9  H   -0.000091  -0.000989   0.004174   0.006506  -0.010678  -0.002721
    10  H    0.000471  -0.000350   0.003732   0.004003  -0.007015  -0.001735
    11  H   -0.000833   0.000620  -0.004104  -0.000789   0.002863   0.000885
    12  H    0.000008  -0.000127  -0.000540   0.000054  -0.000320   0.000002
               7          8          9         10         11         12
     1  O    0.000222  -0.000387  -0.000091   0.000471  -0.000833   0.000008
     2  O   -0.002367   0.010818  -0.000989  -0.000350   0.000620  -0.000127
     3  O    0.002225  -0.048569   0.004174   0.003732  -0.004104  -0.000540
     4  C    0.008675  -0.006693   0.006506   0.004003  -0.000789   0.000054
     5  C   -0.006422   0.085780  -0.010678  -0.007015   0.002863  -0.000320
     6  H   -0.004841   0.000923  -0.002721  -0.001735   0.000885   0.000002
     7  H    0.012309   0.000187   0.000764  -0.000076  -0.000623  -0.000029
     8  H    0.000187  -0.051093  -0.003696  -0.000657   0.001618   0.000295
     9  H    0.000764  -0.003696  -0.026448   0.005362  -0.000204  -0.000028
    10  H   -0.000076  -0.000657   0.005362  -0.031032  -0.000419   0.000002
    11  H   -0.000623   0.001618  -0.000204  -0.000419   0.002256  -0.000065
    12  H   -0.000029   0.000295  -0.000028   0.000002  -0.000065  -0.000550
 Mulliken charges and spin densities:
               1          2
     1  O   -0.400242   0.001345
     2  O   -0.242660   0.036810
     3  O   -0.246824   0.353185
     4  C   -0.043462  -0.036469
     5  C   -0.372319   0.664246
     6  H    0.125851   0.038192
     7  H    0.115340   0.010022
     8  H    0.234200  -0.011474
     9  H    0.133229  -0.028049
    10  H    0.156998  -0.027715
    11  H    0.263844   0.001205
    12  H    0.276047  -0.001298
 Sum of Mulliken charges =  -0.00000   1.00000
 Mulliken charges and spin densities with hydrogens summed into heavy atoms:
               1          2
     1  O   -0.136399   0.002550
     2  O    0.033386   0.035512
     3  O   -0.012624   0.341711
     4  C    0.197729   0.011746
     5  C   -0.082092   0.608482
 Electronic spatial extent (au):  <R**2>=            503.4065
 Charge=             -0.0000 electrons
 Dipole moment (field-independent basis, Debye):
    X=             -1.2730    Y=              2.6180    Z=             -1.4566  Tot=              3.2552
 Quadrupole moment (field-independent basis, Debye-Ang):
   XX=            -28.9872   YY=            -31.8190   ZZ=            -30.6239
   XY=              1.5052   XZ=              1.5102   YZ=             -0.7263
 Traceless Quadrupole moment (field-independent basis, Debye-Ang):
   XX=              1.4895   YY=             -1.3423   ZZ=             -0.1472
   XY=              1.5052   XZ=              1.5102   YZ=             -0.7263
 Octapole moment (field-independent basis, Debye-Ang**2):
  XXX=            -25.7748  YYY=             -1.5558  ZZZ=              0.6581  XYY=             -5.7079
  XXY=              6.9159  XXZ=            -11.4067  XZZ=             -3.2594  YZZ=             -1.1925
  YYZ=              1.1649  XYZ=              3.1296
 Hexadecapole moment (field-independent basis, Debye-Ang**3):
 XXXX=           -300.3980 YYYY=           -161.3815 ZZZZ=            -88.5709 XXXY=             -5.0642
 XXXZ=             18.9523 YYYX=              1.5149 YYYZ=             -5.1050 ZZZX=              7.2531
 ZZZY=             -0.1462 XXYY=            -95.2416 XXZZ=            -69.8525 YYZZ=            -39.2065
 XXYZ=             -0.8381 YYXZ=              0.2353 ZZXY=              0.0841
 N-N= 1.941958624124D+02 E-N=-1.107716249303D+03  KE= 3.043582828169D+02
                          Isotropic Fermi Contact Couplings
        Atom                 a.u.       MegaHertz       Gauss      10(-4) cm-1
     1  O(17)              0.00770      -4.66652      -1.66513      -1.55658
     2  O(17)              0.00342      -2.07325      -0.73979      -0.69156
     3  O(17)              0.12368     -74.97419     -26.75266     -25.00870
     4  C(13)             -0.01823     -20.49375      -7.31268      -6.83598
     5  C(13)              0.17290     194.37328      69.35722      64.83595
     6  H(1)               0.02007      89.71382      32.01212      29.92531
     7  H(1)               0.00733      32.75038      11.68615      10.92435
     8  H(1)              -0.02705    -120.90279     -43.14112     -40.32883
     9  H(1)              -0.00419     -18.73282      -6.68434      -6.24860
    10  H(1)              -0.00475     -21.22564      -7.57384      -7.08011
    11  H(1)               0.00058       2.57952       0.92044       0.86044
    12  H(1)              -0.00068      -3.02590      -1.07972      -1.00933
 --------------------------------------------------------
       Center         ----  Spin Dipole Couplings  ----
                      3XX-RR        3YY-RR        3ZZ-RR
 --------------------------------------------------------
     1   Atom       -0.006852      0.015506     -0.008654
     2   Atom        0.120393      0.063557     -0.183950
     3   Atom        0.508577     -0.106958     -0.401619
     4   Atom        0.027122     -0.010002     -0.017121
     5   Atom        0.614636     -0.297556     -0.317080
     6   Atom        0.006350     -0.001677     -0.004674
     7   Atom       -0.005869      0.000578      0.005291
     8   Atom        0.118030     -0.020422     -0.097608
     9   Atom       -0.005990      0.014689     -0.008698
    10   Atom       -0.000005     -0.040707      0.040712
    11   Atom       -0.000828      0.009322     -0.008494
    12   Atom        0.007530     -0.005217     -0.002313
 --------------------------------------------------------
                        XY            XZ            YZ
 --------------------------------------------------------
     1   Atom        0.002905     -0.001220     -0.007405
     2   Atom        0.214623     -0.071215     -0.092235
     3   Atom        1.057888     -0.823136     -0.611204
     4   Atom       -0.012388     -0.001235      0.000881
     5   Atom        0.254640     -0.212537     -0.055926
     6   Atom       -0.003064     -0.008993      0.002634
     7   Atom        0.000271     -0.002465      0.011242
     8   Atom        0.128612     -0.066767     -0.036381
     9   Atom       -0.003460      0.002675     -0.048843
    10   Atom        0.016275      0.020697      0.013627
    11   Atom       -0.006304      0.000332     -0.003810
    12   Atom       -0.001852      0.013750     -0.003529
 --------------------------------------------------------


 ---------------------------------------------------------------------------------
              Anisotropic Spin Dipole Couplings in Principal Axis System
 ---------------------------------------------------------------------------------

       Atom             a.u.   MegaHertz   Gauss  10(-4) cm-1        Axes

              Baa    -0.0108     0.780     0.278     0.260  0.1068  0.2586  0.9601
     1 O(17)  Bbb    -0.0072     0.521     0.186     0.174  0.9864 -0.1489 -0.0696
              Bcc     0.0180    -1.302    -0.464    -0.434  0.1249  0.9544 -0.2710
 
              Baa    -0.2145    15.524     5.539     5.178  0.0002  0.3147  0.9492
     2 O(17)  Bbb    -0.1192     8.628     3.079     2.878 -0.6863  0.6904 -0.2287
              Bcc     0.3338   -24.152    -8.618    -8.056  0.7273  0.6514 -0.2161
 
              Baa    -0.9021    65.276    23.292    21.774 -0.6633  0.7166 -0.2157
     3 O(17)  Bbb    -0.8815    63.782    22.759    21.275  0.1873  0.4380  0.8792
              Bcc     1.7836  -129.058   -46.051   -43.049  0.7246  0.5428 -0.4247
 
              Baa    -0.0172    -2.312    -0.825    -0.771 -0.0118 -0.1409  0.9900
     4 C(13)  Bbb    -0.0137    -1.837    -0.655    -0.613  0.2915  0.9465  0.1382
              Bcc     0.0309     4.149     1.480     1.384  0.9565 -0.2902 -0.0299
 
              Baa    -0.3642   -48.874   -17.439   -16.302 -0.0999  0.8353  0.5407
     5 C(13)  Bbb    -0.3629   -48.704   -17.379   -16.246  0.3053 -0.4915  0.8156
              Bcc     0.7272    97.578    34.818    32.548  0.9470  0.2466 -0.2059
 
              Baa    -0.0098    -5.227    -1.865    -1.744  0.4680 -0.1080  0.8771
     6 H(1)   Bbb    -0.0027    -1.440    -0.514    -0.480  0.2882  0.9569 -0.0360
              Bcc     0.0125     6.667     2.379     2.224  0.8354 -0.2696 -0.4790
 
              Baa    -0.0095    -5.043    -1.800    -1.682 -0.4544  0.6701 -0.5869
     7 H(1)   Bbb    -0.0051    -2.731    -0.974    -0.911  0.8867  0.4034 -0.2258
              Bcc     0.0146     7.774     2.774     2.593 -0.0855  0.6230  0.7775
 
              Baa    -0.1166   -62.217   -22.200   -20.753  0.2778 -0.0081  0.9606
     8 H(1)   Bbb    -0.0968   -51.656   -18.432   -17.231 -0.4748  0.8682  0.1446
              Bcc     0.2134   113.873    40.633    37.984  0.8351  0.4962 -0.2373
 
              Baa    -0.0472   -25.199    -8.992    -8.405  0.0010  0.6194  0.7851
     9 H(1)   Bbb    -0.0063    -3.368    -1.202    -1.123  0.9973  0.0569 -0.0462
              Bcc     0.0535    28.566    10.193     9.529 -0.0733  0.7830 -0.6177
 
              Baa    -0.0469   -25.016    -8.926    -8.345 -0.2960  0.9520 -0.0782
    10 H(1)   Bbb    -0.0063    -3.387    -1.209    -1.130  0.8639  0.2319 -0.4471
              Bcc     0.0532    28.403    10.135     9.474  0.4075  0.1999  0.8911
 
              Baa    -0.0094    -5.020    -1.791    -1.675  0.1412  0.2427  0.9598
    11 H(1)   Bbb    -0.0035    -1.884    -0.672    -0.629  0.8993  0.3738 -0.2269
              Bcc     0.0129     6.904     2.464     2.303 -0.4138  0.8952 -0.1655
 
              Baa    -0.0125    -6.658    -2.376    -2.221 -0.5311  0.2569  0.8074
    12 H(1)   Bbb    -0.0053    -2.819    -1.006    -0.940  0.2718  0.9542 -0.1248
              Bcc     0.0178     9.477     3.382     3.161  0.8025 -0.1532  0.5766
 

 ---------------------------------------------------------------------------------

 No NMR shielding tensors so no spin-rotation constants.
 Leave Link  601 at Sat Jun 22 12:33:49 2019, MaxMem=   671088640 cpu:               6.1 elap:               0.3
 (Enter /shared/centos7/gaussian/g16/l9999.exe)
 1\1\GINC-C0093\FOpt\UM062X\CC-pVTZ\C2H7O3(2)\HARMS.N\22-Jun-2019\0\\#p
  m062x/cc-pVTZ Opt=(ModRedun,Loose,maxcycles=900) Int(Grid=SG1) scf=(m
 axcycle=900)\\Gaussian input prepared by ASE\\0,2\O,-2.0891680329,-0.1
 197229655,0.8057475511\O,-1.0754909761,1.3590582197,3.4786963449\O,-0.
 0587573013,0.7848375167,2.7118141507\C,-1.9781963619,1.2715274993,0.62
 80411885\C,-0.554682128,1.7196324,0.5199746077\H,-2.5047567857,1.51021
 04702,-0.3015101436\H,-2.4810403653,1.8182858841,1.4327337193\H,-0.016
 5982866,1.4349547007,1.7458846685\H,-0.3883648325,2.7895871581,0.41998
 39385\H,0.0730973254,1.1018187661,-0.1159836486\H,-1.5970423089,-0.346
 2120806,1.6025624435\H,-0.6030282975,1.9950927295,4.0292755103\\Versio
 n=EM64L-G16RevA.03\State=2-A\HF=-305.8980012\S2=0.759481\S2-1=0.\S2A=0
 .750047\RMSD=5.174e-09\RMSF=2.663e-03\Dipole=0.4882314,1.1687511,0.189
 202\Quadrupole=-1.8929281,0.0588679,1.8340601,-0.4525594,-0.2693747,0.
 4113204\PG=C01 [X(C2H7O3)]\\@


 ALL THINGS ARE POSSIBLE EXCEPT SKIING THROUGH A REVOLVING DOOR.
 Job cpu time:       0 days  2 hours 21 minutes  8.8 seconds.
 Elapsed time:       0 days  0 hours  7 minutes  9.5 seconds.
 File lengths (MBytes):  RWF=    304 Int=      0 D2E=      0 Chk=     32 Scr=     32
 Normal termination of Gaussian 16 at Sat Jun 22 12:33:49 2019.
