 Entering Gaussian System, Link 0=g16
 Input=/scratch/harms.n//autotst-2.0-QMScratch/ts/CCO+[O]O_OO+[CH2]CO/conformers/CCO+[O]O_OO+[CH2]CO_forward_shell_3.com
 Output=/scratch/harms.n//autotst-2.0-QMScratch/ts/CCO+[O]O_OO+[CH2]CO/conformers/CCO+[O]O_OO+[CH2]CO_forward_shell_3.log
 Initial command:
 /shared/centos7/gaussian/g16/l1.exe "/scratch/harms.n/gauss_scrdir/Gau-22168.inp" -scrdir="/scratch/harms.n/gauss_scrdir/"
 Entering Link 1 = /shared/centos7/gaussian/g16/l1.exe PID=     22169.
  
 Copyright (c) 1988,1990,1992,1993,1995,1998,2003,2009,2016,
            Gaussian, Inc.  All Rights Reserved.
  
 This is part of the Gaussian(R) 16 program.  It is based on
 the Gaussian(R) 09 system (copyright 2009, Gaussian, Inc.),
 the Gaussian(R) 03 system (copyright 2003, Gaussian, Inc.),
 the Gaussian(R) 98 system (copyright 1998, Gaussian, Inc.),
 the Gaussian(R) 94 system (copyright 1995, Gaussian, Inc.),
 the Gaussian 92(TM) system (copyright 1992, Gaussian, Inc.),
 the Gaussian 90(TM) system (copyright 1990, Gaussian, Inc.),
 the Gaussian 88(TM) system (copyright 1988, Gaussian, Inc.),
 the Gaussian 86(TM) system (copyright 1986, Carnegie Mellon
 University), and the Gaussian 82(TM) system (copyright 1983,
 Carnegie Mellon University). Gaussian is a federally registered
 trademark of Gaussian, Inc.
  
 This software contains proprietary and confidential information,
 including trade secrets, belonging to Gaussian, Inc.
  
 This software is provided under written license and may be
 used, copied, transmitted, or stored only in accord with that
 written license.
  
 The following legend is applicable only to US Government
 contracts under FAR:
  
                    RESTRICTED RIGHTS LEGEND
  
 Use, reproduction and disclosure by the US Government is
 subject to restrictions as set forth in subparagraphs (a)
 and (c) of the Commercial Computer Software - Restricted
 Rights clause in FAR 52.227-19.
  
 Gaussian, Inc.
 340 Quinnipiac St., Bldg. 40, Wallingford CT 06492
  
  
 ---------------------------------------------------------------
 Warning -- This program may not be used in any manner that
 competes with the business of Gaussian, Inc. or will provide
 assistance to any competitor of Gaussian, Inc.  The licensee
 of this program is prohibited from giving any competitor of
 Gaussian, Inc. access to this program.  By using this program,
 the user acknowledges that Gaussian, Inc. is engaged in the
 business of creating and licensing software in the field of
 computational chemistry and represents and warrants to the
 licensee that it is not a competitor of Gaussian, Inc. and that
 it will not use this program in any manner prohibited above.
 ---------------------------------------------------------------
  

 Cite this work as:
 Gaussian 16, Revision A.03,
 M. J. Frisch, G. W. Trucks, H. B. Schlegel, G. E. Scuseria, 
 M. A. Robb, J. R. Cheeseman, G. Scalmani, V. Barone, 
 G. A. Petersson, H. Nakatsuji, X. Li, M. Caricato, A. V. Marenich, 
 J. Bloino, B. G. Janesko, R. Gomperts, B. Mennucci, H. P. Hratchian, 
 J. V. Ortiz, A. F. Izmaylov, J. L. Sonnenberg, D. Williams-Young, 
 F. Ding, F. Lipparini, F. Egidi, J. Goings, B. Peng, A. Petrone, 
 T. Henderson, D. Ranasinghe, V. G. Zakrzewski, J. Gao, N. Rega, 
 G. Zheng, W. Liang, M. Hada, M. Ehara, K. Toyota, R. Fukuda, 
 J. Hasegawa, M. Ishida, T. Nakajima, Y. Honda, O. Kitao, H. Nakai, 
 T. Vreven, K. Throssell, J. A. Montgomery, Jr., J. E. Peralta, 
 F. Ogliaro, M. J. Bearpark, J. J. Heyd, E. N. Brothers, K. N. Kudin, 
 V. N. Staroverov, T. A. Keith, R. Kobayashi, J. Normand, 
 K. Raghavachari, A. P. Rendell, J. C. Burant, S. S. Iyengar, 
 J. Tomasi, M. Cossi, J. M. Millam, M. Klene, C. Adamo, R. Cammi, 
 J. W. Ochterski, R. L. Martin, K. Morokuma, O. Farkas, 
 J. B. Foresman, and D. J. Fox, Gaussian, Inc., Wallingford CT, 2016.
 
 ******************************************
 Gaussian 16:  EM64L-G16RevA.03 25-Dec-2016
                22-Jun-2019 
 ******************************************
 %nprocshared=20
 Will use up to   20 processors via shared memory.
 %mem=5GB
 ----------------------------------------------------------------------
 #p m062x/cc-pVTZ Opt=(ModRedun,Loose,maxcycles=900) Int(Grid=SG1) scf=
 (maxcycle=900)
 ----------------------------------------------------------------------
 1/6=900,7=-1,18=120,19=15,26=2,38=1/1,3;
 2/9=110,12=2,17=6,18=5,40=1/2;
 3/5=16,6=1,11=2,25=1,30=1,71=1,74=-55,75=1/1,2,3;
 4//1;
 5/5=2,7=900,38=5/2;
 6/7=2,8=2,9=2,10=2,28=1/1;
 7//1,2,3,16;
 1/6=900,7=-1,18=20,19=15,26=2/3(2);
 2/9=110/2;
 99//99;
 2/9=110/2;
 3/5=16,6=1,11=2,25=1,30=1,71=1,74=-55,75=1/1,2,3;
 4/5=5,16=3,69=1/1;
 5/5=2,7=900,38=5/2;
 7//1,2,3,16;
 1/6=900,7=-1,18=20,19=15,26=2/3(-5);
 2/9=110/2;
 6/7=2,8=2,9=2,10=2,19=2,28=1/1;
 99/9=1/99;
 Leave Link    1 at Sat Jun 22 12:35:07 2019, MaxMem=   671088640 cpu:              25.8 elap:               1.4
 (Enter /shared/centos7/gaussian/g16/l101.exe)
 ------------------------------
 Gaussian input prepared by ASE
 ------------------------------
 Symbolic Z-matrix:
 Charge =  0 Multiplicity = 2
 O                    -2.08348   1.50638   0.25085 
 O                    -0.59487  -2.54155   3.06144 
 O                    -1.77818  -2.20578   2.59349 
 C                    -1.61073   0.20587   0.03065 
 C                    -0.89622  -0.38734   1.23725 
 H                    -2.48784  -0.41259  -0.26575 
 H                    -0.9159    0.18286  -0.8352 
 H                    -1.54866  -1.49993   1.69541 
 H                    -0.83946   0.30897   2.10071 
 H                     0.11782  -0.76643   0.99023 
 H                    -1.50858   1.91095   0.952 
 H                    -0.43551  -1.87267   3.77403 
 
 Add virtual bond connecting atoms H8         and O3         Dist= 2.20D+00.
 Add virtual bond connecting atoms H8         and C5         Dist= 2.59D+00.
 The following ModRedundant input section has been read:
 B       5       8 F                                                           
 B       3       8 F                                                           
 A       3       8       5 F                                                   
 
 ITRead=  0  0  0  0  0  0  0  0  0  0  0  0
 MicOpt= -1 -1 -1 -1 -1 -1 -1 -1 -1 -1 -1 -1
 NAtoms=     12 NQM=       12 NQMF=       0 NMMI=      0 NMMIF=      0
                NMic=       0 NMicF=      0.
                    Isotopes and Nuclear Properties:
 (Nuclear quadrupole moments (NQMom) in fm**2, nuclear magnetic moments (NMagM)
  in nuclear magnetons)

  Atom         1           2           3           4           5           6           7           8           9          10
 IAtWgt=          16          16          16          12          12           1           1           1           1           1
 AtmWgt=  15.9949146  15.9949146  15.9949146  12.0000000  12.0000000   1.0078250   1.0078250   1.0078250   1.0078250   1.0078250
 NucSpn=           0           0           0           0           0           1           1           1           1           1
 AtZEff=  -0.0000000  -0.0000000  -0.0000000  -0.0000000  -0.0000000  -0.0000000  -0.0000000  -0.0000000  -0.0000000  -0.0000000
 NQMom=    0.0000000   0.0000000   0.0000000   0.0000000   0.0000000   0.0000000   0.0000000   0.0000000   0.0000000   0.0000000
 NMagM=    0.0000000   0.0000000   0.0000000   0.0000000   0.0000000   2.7928460   2.7928460   2.7928460   2.7928460   2.7928460
 AtZNuc=   8.0000000   8.0000000   8.0000000   6.0000000   6.0000000   1.0000000   1.0000000   1.0000000   1.0000000   1.0000000

  Atom        11          12
 IAtWgt=           1           1
 AtmWgt=   1.0078250   1.0078250
 NucSpn=           1           1
 AtZEff=  -0.0000000  -0.0000000
 NQMom=    0.0000000   0.0000000
 NMagM=    2.7928460   2.7928460
 AtZNuc=   1.0000000   1.0000000
 Leave Link  101 at Sat Jun 22 12:35:08 2019, MaxMem=   671088640 cpu:               5.7 elap:               0.3
 (Enter /shared/centos7/gaussian/g16/l103.exe)

 GradGradGradGradGradGradGradGradGradGradGradGradGradGradGradGradGradGrad
 Berny optimization.
 Initialization pass.
                           ----------------------------
                           !    Initial Parameters    !
                           ! (Angstroms and Degrees)  !
 --------------------------                            --------------------------
 ! Name  Definition              Value          Derivative Info.                !
 --------------------------------------------------------------------------------
 ! R1    R(1,4)                  1.4012         estimate D2E/DX2                !
 ! R2    R(1,11)                 0.9929         estimate D2E/DX2                !
 ! R3    R(2,3)                  1.316          estimate D2E/DX2                !
 ! R4    R(2,12)                 0.9902         estimate D2E/DX2                !
 ! R5    R(3,8)                  1.1651         Frozen                          !
 ! R6    R(4,5)                  1.5226         estimate D2E/DX2                !
 ! R7    R(4,6)                  1.1134         estimate D2E/DX2                !
 ! R8    R(4,7)                  1.1104         estimate D2E/DX2                !
 ! R9    R(5,8)                  1.3687         Frozen                          !
 ! R10   R(5,9)                  1.1107         estimate D2E/DX2                !
 ! R11   R(5,10)                 1.1104         estimate D2E/DX2                !
 ! A1    A(4,1,11)             107.0865         estimate D2E/DX2                !
 ! A2    A(3,2,12)             103.1933         estimate D2E/DX2                !
 ! A3    A(2,3,8)              104.568          estimate D2E/DX2                !
 ! A4    A(1,4,5)              113.2911         estimate D2E/DX2                !
 ! A5    A(1,4,6)              106.9542         estimate D2E/DX2                !
 ! A6    A(1,4,7)              110.6642         estimate D2E/DX2                !
 ! A7    A(5,4,6)              111.36           estimate D2E/DX2                !
 ! A8    A(5,4,7)              108.4338         estimate D2E/DX2                !
 ! A9    A(6,4,7)              105.8941         estimate D2E/DX2                !
 ! A10   A(4,5,8)              110.9938         estimate D2E/DX2                !
 ! A11   A(4,5,9)              113.3154         estimate D2E/DX2                !
 ! A12   A(4,5,10)             112.6603         estimate D2E/DX2                !
 ! A13   A(8,5,9)              105.8863         estimate D2E/DX2                !
 ! A14   A(8,5,10)             103.4302         estimate D2E/DX2                !
 ! A15   A(9,5,10)             109.8954         estimate D2E/DX2                !
 ! A16   A(3,8,5)              147.6051         Frozen                          !
 ! D1    D(11,1,4,5)            26.0511         estimate D2E/DX2                !
 ! D2    D(11,1,4,6)           149.1301         estimate D2E/DX2                !
 ! D3    D(11,1,4,7)           -95.9742         estimate D2E/DX2                !
 ! D4    D(12,2,3,8)            93.4287         estimate D2E/DX2                !
 ! D5    D(2,3,8,5)            -52.6519         estimate D2E/DX2                !
 ! D6    D(1,4,5,8)            117.7565         estimate D2E/DX2                !
 ! D7    D(1,4,5,9)             -1.233          estimate D2E/DX2                !
 ! D8    D(1,4,5,10)          -126.789          estimate D2E/DX2                !
 ! D9    D(6,4,5,8)             -2.8577         estimate D2E/DX2                !
 ! D10   D(6,4,5,9)           -121.8472         estimate D2E/DX2                !
 ! D11   D(6,4,5,10)           112.5969         estimate D2E/DX2                !
 ! D12   D(7,4,5,8)           -118.9818         estimate D2E/DX2                !
 ! D13   D(7,4,5,9)            122.0287         estimate D2E/DX2                !
 ! D14   D(7,4,5,10)            -3.5273         estimate D2E/DX2                !
 ! D15   D(4,5,8,3)           -154.6223         estimate D2E/DX2                !
 ! D16   D(9,5,8,3)            -31.2566         estimate D2E/DX2                !
 ! D17   D(10,5,8,3)            84.3204         estimate D2E/DX2                !
 --------------------------------------------------------------------------------
 Trust Radius=3.00D-01 FncErr=1.00D-05 GrdErr=1.00D-04 EigMax=2.50D+02 EigMin=1.00D-04
 Number of steps in this run=    100 maximum allowed number of steps=    100.
 GradGradGradGradGradGradGradGradGradGradGradGradGradGradGradGradGradGrad

 Leave Link  103 at Sat Jun 22 12:35:08 2019, MaxMem=   671088640 cpu:               0.9 elap:               0.1
 (Enter /shared/centos7/gaussian/g16/l202.exe)
                          Input orientation:                          
 ---------------------------------------------------------------------
 Center     Atomic      Atomic             Coordinates (Angstroms)
 Number     Number       Type             X           Y           Z
 ---------------------------------------------------------------------
      1          8           0       -2.083478    1.506382    0.250847
      2          8           0       -0.594873   -2.541549    3.061441
      3          8           0       -1.778176   -2.205777    2.593493
      4          6           0       -1.610734    0.205870    0.030648
      5          6           0       -0.896219   -0.387342    1.237252
      6          1           0       -2.487840   -0.412586   -0.265747
      7          1           0       -0.915900    0.182864   -0.835201
      8          1           0       -1.548657   -1.499926    1.695414
      9          1           0       -0.839463    0.308971    2.100708
     10          1           0        0.117822   -0.766434    0.990234
     11          1           0       -1.508576    1.910949    0.952003
     12          1           0       -0.435512   -1.872669    3.774027
 ---------------------------------------------------------------------
                    Distance matrix (angstroms):
                    1          2          3          4          5
     1  O    0.000000
     2  O    5.147925   0.000000
     3  O    4.400150   1.316026   0.000000
     4  C    1.401180   4.214972   3.523103   0.000000
     5  C    2.443107   2.838853   2.433915   1.522605   0.000000
     6  H    2.028008   4.380181   3.448827   1.113397   2.189269
     7  H    2.072303   4.765428   4.266740   1.110413   2.149554
     8  H    3.377972   1.964869   1.165096   2.384333   1.368733
     9  H    2.530485   3.017996   2.729098   2.211478   1.110689
    10  H    3.249324   2.819374   2.870010   2.203199   1.110408
    11  H    0.992878   5.010921   4.440114   1.940779   2.395515
    12  H    5.152337   0.990240   1.818617   4.440085   2.975512
                    6          7          8          9         10
     6  H    0.000000
     7  H    1.774778   0.000000
     8  H    2.431157   3.104220   0.000000
     9  H    2.972860   2.939610   1.984774   0.000000
    10  H    2.914133   2.302598   1.952547   1.818253   0.000000
    11  H    2.800123   2.555707   3.491180   2.081723   3.132892
    12  H    4.760637   5.069612   2.387186   2.778979   3.046217
                   11         12
    11  H    0.000000
    12  H    4.840563   0.000000
 Stoichiometry    C2H7O3(2)
 Framework group  C1[X(C2H7O3)]
 Deg. of freedom    30
 Full point group                 C1      NOp   1
 Largest Abelian subgroup         C1      NOp   1
 Largest concise Abelian subgroup C1      NOp   1
                         Standard orientation:                         
 ---------------------------------------------------------------------
 Center     Atomic      Atomic             Coordinates (Angstroms)
 Number     Number       Type             X           Y           Z
 ---------------------------------------------------------------------
      1          8           0       -2.555395    0.110882   -0.498873
      2          8           0        2.545197   -0.314870    0.052335
      3          8           0        1.787944    0.737084   -0.175447
      4          6           0       -1.614256    0.163915    0.537830
      5          6           0       -0.285600   -0.487237    0.178665
      6          1           0       -1.481601    1.237524    0.801304
      7          1           0       -2.010067   -0.326864    1.451880
      8          1           0        0.732513    0.427086    0.208501
      9          1           0       -0.271986   -0.924207   -0.842365
     10          1           0        0.031222   -1.250311    0.920521
     11          1           0       -2.327366   -0.675908   -1.059918
     12          1           0        2.504455   -0.812154   -0.803015
 ---------------------------------------------------------------------
 Rotational constants (GHZ):          15.1012220           1.5595269           1.5336080
 Leave Link  202 at Sat Jun 22 12:35:08 2019, MaxMem=   671088640 cpu:               1.2 elap:               0.1
 (Enter /shared/centos7/gaussian/g16/l301.exe)
 Standard basis: CC-pVTZ (5D, 7F)
 Ernie: Thresh=  0.10000D-02 Tol=  0.10000D-05 Strict=F.
 Ernie:  15 primitive shells out of 186 were deleted.
 There are   280 symmetry adapted cartesian basis functions of A   symmetry.
 There are   248 symmetry adapted basis functions of A   symmetry.
   248 basis functions,   379 primitive gaussians,   280 cartesian basis functions
    22 alpha electrons       21 beta electrons
       nuclear repulsion energy       181.0993772524 Hartrees.
 IExCor= 4336 DFT=T Ex+Corr=M062X ExCW=0 ScaHFX=  0.540000
 ScaDFX=  1.000000  1.000000  1.000000  1.000000 ScalE2=  1.000000  1.000000
 IRadAn=      1 IRanWt=     -1 IRanGd=            0 ICorTp=0 IEmpDi=  4
 NAtoms=   12 NActive=   12 NUniq=   12 SFac= 1.00D+00 NAtFMM=   60 NAOKFM=F Big=F
 Integral buffers will be    131072 words long.
 Raffenetti 2 integral format.
 Two-electron integral symmetry is turned on.
 Leave Link  301 at Sat Jun 22 12:35:08 2019, MaxMem=   671088640 cpu:               1.2 elap:               0.1
 (Enter /shared/centos7/gaussian/g16/l302.exe)
 NPDir=0 NMtPBC=     1 NCelOv=     1 NCel=       1 NClECP=     1 NCelD=      1
         NCelK=      1 NCelE2=     1 NClLst=     1 CellRange=     0.0.
 One-electron integrals computed using PRISM.
 One-electron integral symmetry used in STVInt
 NBasis=   248 RedAO= T EigKep=  7.31D-04  NBF=   248
 NBsUse=   248 1.00D-06 EigRej= -1.00D+00 NBFU=   248
 Precomputing XC quadrature grid using
 IXCGrd= 4 IRadAn=           1 IRanWt=          -1 IRanGd=           0 AccXCQ= 0.00D+00.
 Generated NRdTot=       0 NPtTot=           0 NUsed=           0 NTot=          32
 NSgBfM=   280   280   280   280   280 MxSgAt=    12 MxSgA2=    12.
 Leave Link  302 at Sat Jun 22 12:35:08 2019, MaxMem=   671088640 cpu:               6.2 elap:               0.3
 (Enter /shared/centos7/gaussian/g16/l303.exe)
 DipDrv:  MaxL=1.
 Leave Link  303 at Sat Jun 22 12:35:08 2019, MaxMem=   671088640 cpu:               0.9 elap:               0.1
 (Enter /shared/centos7/gaussian/g16/l401.exe)
 ExpMin= 1.03D-01 ExpMax= 1.53D+04 ExpMxC= 5.22D+02 IAcc=1 IRadAn=         1 AccDes= 0.00D+00
 Harris functional with IExCor= 1009 and IRadAn=       1 diagonalized for initial guess.
 HarFok:  IExCor= 1009 AccDes= 0.00D+00 IRadAn=         1 IDoV= 1 UseB2=F ITyADJ=14
 ICtDFT=  3500011 ScaDFX=  1.000000  1.000000  1.000000  1.000000
 FoFCou: FMM=F IPFlag=           0 FMFlag=      100000 FMFlg1=           0
         NFxFlg=           0 DoJE=T BraDBF=F KetDBF=T FulRan=T
         wScrn=  0.000000 ICntrl=       500 IOpCl=  0 I1Cent=   200000004 NGrid=           0
         NMat0=    1 NMatS0=      1 NMatT0=    0 NMatD0=    1 NMtDS0=    0 NMtDT0=    0
 Petite list used in FoFCou.
 Harris En= -305.759383950022    
 JPrj=0 DoOrth=F DoCkMO=F.
 Initial guess <Sx>= 0.0000 <Sy>= 0.0000 <Sz>= 0.5000 <S**2>= 0.7500 S= 0.5000
 Leave Link  401 at Sat Jun 22 12:35:09 2019, MaxMem=   671088640 cpu:               9.4 elap:               0.5
 (Enter /shared/centos7/gaussian/g16/l502.exe)
 Integral symmetry usage will be decided dynamically.
 UHF open shell SCF:
 Using DIIS extrapolation, IDIIS=  1040.
 NGot=   671088640 LenX=   670923676 LenY=   670844835
 Requested convergence on RMS density matrix=1.00D-08 within 900 cycles.
 Requested convergence on MAX density matrix=1.00D-06.
 Requested convergence on             energy=1.00D-06.
 No special actions if energy rises.
 Fock matrices will be formed incrementally for  20 cycles.

 Cycle   1  Pass 1  IDiag  1:
 FoFJK:  IHMeth= 1 ICntrl=       0 DoSepK=F KAlg= 0 I1Cent=           0 FoldK=F
 IRaf= 950000000 NMat=       1 IRICut=       1 DoRegI=T DoRafI=F ISym2E= 0 IDoP0=0 IntGTp=1.
 FoFCou: FMM=F IPFlag=           0 FMFlag=      100000 FMFlg1=           0
         NFxFlg=           0 DoJE=F BraDBF=F KetDBF=F FulRan=T
         wScrn=  0.000000 ICntrl=         0 IOpCl=  1 I1Cent=           0 NGrid=           0
         NMat0=    1 NMatS0=      1 NMatT0=    0 NMatD0=    1 NMtDS0=    0 NMtDT0=    0
 Symmetry not used in FoFCou.
 E= -305.726909929981    
 DIIS: error= 2.96D-02 at cycle   1 NSaved=   1.
 NSaved= 1 IEnMin= 1 EnMin= -305.726909929981     IErMin= 1 ErrMin= 2.96D-02
 ErrMax= 2.96D-02  0.00D+00 EMaxC= 1.00D-01 BMatC= 8.03D-01 BMatP= 8.03D-01
 IDIUse=3 WtCom= 7.04D-01 WtEn= 2.96D-01
 Coeff-Com:  0.100D+01
 Coeff-En:   0.100D+01
 Coeff:      0.100D+01
 Gap=     0.359 Goal=   None    Shift=    0.000
 Gap=     0.327 Goal=   None    Shift=    0.000
 GapD=    0.327 DampG=1.000 DampE=0.500 DampFc=0.5000 IDamp=-1.
 Damping current iteration by 5.00D-01
 RMSDP=2.16D-03 MaxDP=8.93D-02              OVMax= 2.29D-01

 Cycle   2  Pass 1  IDiag  1:
 RMSU=  1.08D-03    CP:  1.00D+00
 E= -305.800335321122     Delta-E=       -0.073425391141 Rises=F Damp=T
 DIIS: error= 6.96D-03 at cycle   2 NSaved=   2.
 NSaved= 2 IEnMin= 2 EnMin= -305.800335321122     IErMin= 2 ErrMin= 6.96D-03
 ErrMax= 6.96D-03  0.00D+00 EMaxC= 1.00D-01 BMatC= 7.76D-02 BMatP= 8.03D-01
 IDIUse=3 WtCom= 9.30D-01 WtEn= 6.96D-02
 Coeff-Com: -0.940D-01 0.109D+01
 Coeff-En:   0.000D+00 0.100D+01
 Coeff:     -0.874D-01 0.109D+01
 Gap=     0.352 Goal=   None    Shift=    0.000
 Gap=     0.273 Goal=   None    Shift=    0.000
 RMSDP=5.07D-04 MaxDP=1.69D-02 DE=-7.34D-02 OVMax= 1.08D-01

 Cycle   3  Pass 1  IDiag  1:
 RMSU=  5.03D-04    CP:  1.01D+00  9.76D-01
 E= -305.872733775152     Delta-E=       -0.072398454030 Rises=F Damp=F
 DIIS: error= 3.67D-03 at cycle   3 NSaved=   3.
 NSaved= 3 IEnMin= 3 EnMin= -305.872733775152     IErMin= 3 ErrMin= 3.67D-03
 ErrMax= 3.67D-03  0.00D+00 EMaxC= 1.00D-01 BMatC= 1.86D-02 BMatP= 7.76D-02
 IDIUse=3 WtCom= 9.63D-01 WtEn= 3.67D-02
 Coeff-Com: -0.906D-01 0.342D+00 0.748D+00
 Coeff-En:   0.000D+00 0.000D+00 0.100D+01
 Coeff:     -0.872D-01 0.330D+00 0.757D+00
 Gap=     0.346 Goal=   None    Shift=    0.000
 Gap=     0.247 Goal=   None    Shift=    0.000
 RMSDP=2.25D-04 MaxDP=6.50D-03 DE=-7.24D-02 OVMax= 3.12D-02

 Cycle   4  Pass 1  IDiag  1:
 RMSU=  1.92D-04    CP:  1.00D+00  1.05D+00  8.25D-01
 E= -305.875984260290     Delta-E=       -0.003250485138 Rises=F Damp=F
 DIIS: error= 1.37D-03 at cycle   4 NSaved=   4.
 NSaved= 4 IEnMin= 4 EnMin= -305.875984260290     IErMin= 4 ErrMin= 1.37D-03
 ErrMax= 1.37D-03  0.00D+00 EMaxC= 1.00D-01 BMatC= 4.35D-03 BMatP= 1.86D-02
 IDIUse=3 WtCom= 9.86D-01 WtEn= 1.37D-02
 Coeff-Com: -0.294D-01 0.642D-01 0.358D+00 0.607D+00
 Coeff-En:   0.000D+00 0.000D+00 0.000D+00 0.100D+01
 Coeff:     -0.290D-01 0.633D-01 0.353D+00 0.613D+00
 Gap=     0.344 Goal=   None    Shift=    0.000
 Gap=     0.252 Goal=   None    Shift=    0.000
 RMSDP=9.10D-05 MaxDP=3.67D-03 DE=-3.25D-03 OVMax= 7.91D-03

 Cycle   5  Pass 1  IDiag  1:
 RMSU=  6.08D-05    CP:  1.00D+00  1.05D+00  9.44D-01  8.31D-01
 E= -305.876858481294     Delta-E=       -0.000874221005 Rises=F Damp=F
 DIIS: error= 4.82D-04 at cycle   5 NSaved=   5.
 NSaved= 5 IEnMin= 5 EnMin= -305.876858481294     IErMin= 5 ErrMin= 4.82D-04
 ErrMax= 4.82D-04  0.00D+00 EMaxC= 1.00D-01 BMatC= 1.95D-04 BMatP= 4.35D-03
 IDIUse=3 WtCom= 9.95D-01 WtEn= 4.82D-03
 Coeff-Com:  0.717D-02-0.280D-01-0.227D-01 0.574D-01 0.986D+00
 Coeff-En:   0.000D+00 0.000D+00 0.000D+00 0.000D+00 0.100D+01
 Coeff:      0.714D-02-0.279D-01-0.226D-01 0.571D-01 0.986D+00
 Gap=     0.346 Goal=   None    Shift=    0.000
 Gap=     0.254 Goal=   None    Shift=    0.000
 RMSDP=4.84D-05 MaxDP=1.78D-03 DE=-8.74D-04 OVMax= 1.13D-02

 Cycle   6  Pass 1  IDiag  1:
 RMSU=  2.29D-05    CP:  1.00D+00  1.05D+00  9.69D-01  1.00D+00  1.38D+00
 E= -305.877008611384     Delta-E=       -0.000150130090 Rises=F Damp=F
 DIIS: error= 2.22D-04 at cycle   6 NSaved=   6.
 NSaved= 6 IEnMin= 6 EnMin= -305.877008611384     IErMin= 6 ErrMin= 2.22D-04
 ErrMax= 2.22D-04  0.00D+00 EMaxC= 1.00D-01 BMatC= 6.43D-05 BMatP= 1.95D-04
 IDIUse=3 WtCom= 9.98D-01 WtEn= 2.22D-03
 Coeff-Com:  0.760D-02-0.182D-01-0.742D-01-0.139D+00 0.218D+00 0.101D+01
 Coeff-En:   0.000D+00 0.000D+00 0.000D+00 0.000D+00 0.000D+00 0.100D+01
 Coeff:      0.758D-02-0.182D-01-0.741D-01-0.139D+00 0.218D+00 0.101D+01
 Gap=     0.347 Goal=   None    Shift=    0.000
 Gap=     0.256 Goal=   None    Shift=    0.000
 RMSDP=3.27D-05 MaxDP=1.22D-03 DE=-1.50D-04 OVMax= 6.19D-03

 Cycle   7  Pass 1  IDiag  1:
 RMSU=  1.40D-05    CP:  1.00D+00  1.04D+00  9.89D-01  1.07D+00  1.76D+00
                    CP:  1.33D+00
 E= -305.877052846927     Delta-E=       -0.000044235543 Rises=F Damp=F
 DIIS: error= 1.17D-04 at cycle   7 NSaved=   7.
 NSaved= 7 IEnMin= 7 EnMin= -305.877052846927     IErMin= 7 ErrMin= 1.17D-04
 ErrMax= 1.17D-04  0.00D+00 EMaxC= 1.00D-01 BMatC= 2.67D-05 BMatP= 6.43D-05
 IDIUse=3 WtCom= 9.99D-01 WtEn= 1.17D-03
 Coeff-Com:  0.283D-02-0.465D-02-0.342D-01-0.918D-01-0.736D-01 0.564D+00
 Coeff-Com:  0.638D+00
 Coeff-En:   0.000D+00 0.000D+00 0.000D+00 0.000D+00 0.000D+00 0.000D+00
 Coeff-En:   0.100D+01
 Coeff:      0.283D-02-0.464D-02-0.342D-01-0.917D-01-0.735D-01 0.563D+00
 Coeff:      0.638D+00
 Gap=     0.347 Goal=   None    Shift=    0.000
 Gap=     0.257 Goal=   None    Shift=    0.000
 RMSDP=1.25D-05 MaxDP=3.49D-04 DE=-4.42D-05 OVMax= 2.65D-03

 Cycle   8  Pass 1  IDiag  1:
 RMSU=  5.40D-06    CP:  1.00D+00  1.04D+00  9.95D-01  1.10D+00  1.88D+00
                    CP:  1.59D+00  9.71D-01
 E= -305.877062783239     Delta-E=       -0.000009936312 Rises=F Damp=F
 DIIS: error= 4.51D-05 at cycle   8 NSaved=   8.
 NSaved= 8 IEnMin= 8 EnMin= -305.877062783239     IErMin= 8 ErrMin= 4.51D-05
 ErrMax= 4.51D-05  0.00D+00 EMaxC= 1.00D-01 BMatC= 2.23D-06 BMatP= 2.67D-05
 IDIUse=1 WtCom= 1.00D+00 WtEn= 0.00D+00
 Coeff-Com: -0.133D-02 0.318D-02 0.155D-01 0.226D-01-0.199D-01-0.194D+00
 Coeff-Com:  0.455D-01 0.113D+01
 Coeff:     -0.133D-02 0.318D-02 0.155D-01 0.226D-01-0.199D-01-0.194D+00
 Coeff:      0.455D-01 0.113D+01
 Gap=     0.347 Goal=   None    Shift=    0.000
 Gap=     0.257 Goal=   None    Shift=    0.000
 RMSDP=6.75D-06 MaxDP=1.71D-04 DE=-9.94D-06 OVMax= 1.26D-03

 Cycle   9  Pass 1  IDiag  1:
 RMSU=  2.48D-06    CP:  1.00D+00  1.04D+00  9.96D-01  1.11D+00  1.93D+00
                    CP:  1.70D+00  1.22D+00  1.54D+00
 E= -305.877064556588     Delta-E=       -0.000001773349 Rises=F Damp=F
 DIIS: error= 2.33D-05 at cycle   9 NSaved=   9.
 NSaved= 9 IEnMin= 9 EnMin= -305.877064556588     IErMin= 9 ErrMin= 2.33D-05
 ErrMax= 2.33D-05  0.00D+00 EMaxC= 1.00D-01 BMatC= 7.87D-07 BMatP= 2.23D-06
 IDIUse=1 WtCom= 1.00D+00 WtEn= 0.00D+00
 Coeff-Com: -0.100D-02 0.204D-02 0.127D-01 0.238D-01 0.234D-02-0.198D+00
 Coeff-Com: -0.701D-01 0.518D+00 0.711D+00
 Coeff:     -0.100D-02 0.204D-02 0.127D-01 0.238D-01 0.234D-02-0.198D+00
 Coeff:     -0.701D-01 0.518D+00 0.711D+00
 Gap=     0.347 Goal=   None    Shift=    0.000
 Gap=     0.257 Goal=   None    Shift=    0.000
 RMSDP=3.22D-06 MaxDP=9.46D-05 DE=-1.77D-06 OVMax= 5.92D-04

 Cycle  10  Pass 1  IDiag  1:
 RMSU=  1.24D-06    CP:  1.00D+00  1.04D+00  9.98D-01  1.11D+00  1.96D+00
                    CP:  1.74D+00  1.33D+00  1.82D+00  1.17D+00
 E= -305.877065028414     Delta-E=       -0.000000471826 Rises=F Damp=F
 DIIS: error= 1.35D-05 at cycle  10 NSaved=  10.
 NSaved=10 IEnMin=10 EnMin= -305.877065028414     IErMin=10 ErrMin= 1.35D-05
 ErrMax= 1.35D-05  0.00D+00 EMaxC= 1.00D-01 BMatC= 1.42D-07 BMatP= 7.87D-07
 IDIUse=1 WtCom= 1.00D+00 WtEn= 0.00D+00
 Coeff-Com:  0.288D-04-0.149D-03 0.111D-02 0.303D-02 0.965D-02-0.255D-01
 Coeff-Com: -0.281D-01-0.135D+00 0.217D+00 0.958D+00
 Coeff:      0.288D-04-0.149D-03 0.111D-02 0.303D-02 0.965D-02-0.255D-01
 Coeff:     -0.281D-01-0.135D+00 0.217D+00 0.958D+00
 Gap=     0.347 Goal=   None    Shift=    0.000
 Gap=     0.257 Goal=   None    Shift=    0.000
 RMSDP=1.86D-06 MaxDP=5.24D-05 DE=-4.72D-07 OVMax= 5.07D-04

 Cycle  11  Pass 1  IDiag  1:
 RMSU=  6.50D-07    CP:  1.00D+00  1.04D+00  9.98D-01  1.11D+00  1.97D+00
                    CP:  1.76D+00  1.38D+00  1.99D+00  1.54D+00  1.35D+00
 E= -305.877065176363     Delta-E=       -0.000000147949 Rises=F Damp=F
 DIIS: error= 5.44D-06 at cycle  11 NSaved=  11.
 NSaved=11 IEnMin=11 EnMin= -305.877065176363     IErMin=11 ErrMin= 5.44D-06
 ErrMax= 5.44D-06  0.00D+00 EMaxC= 1.00D-01 BMatC= 3.31D-08 BMatP= 1.42D-07
 IDIUse=1 WtCom= 1.00D+00 WtEn= 0.00D+00
 Coeff-Com:  0.214D-03-0.465D-03-0.225D-02-0.423D-02 0.188D-02 0.318D-01
 Coeff-Com:  0.102D-01-0.152D+00-0.941D-01 0.285D+00 0.923D+00
 Coeff:      0.214D-03-0.465D-03-0.225D-02-0.423D-02 0.188D-02 0.318D-01
 Coeff:      0.102D-01-0.152D+00-0.941D-01 0.285D+00 0.923D+00
 Gap=     0.347 Goal=   None    Shift=    0.000
 Gap=     0.257 Goal=   None    Shift=    0.000
 RMSDP=1.02D-06 MaxDP=3.68D-05 DE=-1.48D-07 OVMax= 3.26D-04

 Cycle  12  Pass 1  IDiag  1:
 RMSU=  2.94D-07    CP:  1.00D+00  1.04D+00  9.99D-01  1.11D+00  1.98D+00
                    CP:  1.77D+00  1.40D+00  2.07D+00  1.73D+00  1.73D+00
                    CP:  1.49D+00
 E= -305.877065220252     Delta-E=       -0.000000043888 Rises=F Damp=F
 DIIS: error= 3.47D-06 at cycle  12 NSaved=  12.
 NSaved=12 IEnMin=12 EnMin= -305.877065220252     IErMin=12 ErrMin= 3.47D-06
 ErrMax= 3.47D-06  0.00D+00 EMaxC= 1.00D-01 BMatC= 8.91D-09 BMatP= 3.31D-08
 IDIUse=1 WtCom= 1.00D+00 WtEn= 0.00D+00
 Coeff-Com:  0.423D-04-0.779D-04-0.848D-03-0.176D-02-0.188D-02 0.142D-01
 Coeff-Com:  0.108D-01-0.188D-02-0.759D-01-0.191D+00 0.239D+00 0.101D+01
 Coeff:      0.423D-04-0.779D-04-0.848D-03-0.176D-02-0.188D-02 0.142D-01
 Coeff:      0.108D-01-0.188D-02-0.759D-01-0.191D+00 0.239D+00 0.101D+01
 Gap=     0.347 Goal=   None    Shift=    0.000
 Gap=     0.257 Goal=   None    Shift=    0.000
 RMSDP=5.87D-07 MaxDP=2.56D-05 DE=-4.39D-08 OVMax= 2.17D-04

 Cycle  13  Pass 1  IDiag  1:
 RMSU=  1.66D-07    CP:  1.00D+00  1.04D+00  9.99D-01  1.11D+00  1.98D+00
                    CP:  1.77D+00  1.40D+00  2.09D+00  1.82D+00  1.95D+00
                    CP:  2.01D+00  1.63D+00
 E= -305.877065235655     Delta-E=       -0.000000015404 Rises=F Damp=F
 DIIS: error= 1.84D-06 at cycle  13 NSaved=  13.
 NSaved=13 IEnMin=13 EnMin= -305.877065235655     IErMin=13 ErrMin= 1.84D-06
 ErrMax= 1.84D-06  0.00D+00 EMaxC= 1.00D-01 BMatC= 2.30D-09 BMatP= 8.91D-09
 IDIUse=1 WtCom= 1.00D+00 WtEn= 0.00D+00
 Coeff-Com: -0.945D-04 0.205D-03 0.903D-03 0.178D-02-0.771D-03-0.128D-01
 Coeff-Com: -0.486D-02 0.597D-01 0.424D-01-0.126D+00-0.334D+00-0.243D-01
 Coeff-Com:  0.140D+01
 Coeff:     -0.945D-04 0.205D-03 0.903D-03 0.178D-02-0.771D-03-0.128D-01
 Coeff:     -0.486D-02 0.597D-01 0.424D-01-0.126D+00-0.334D+00-0.243D-01
 Coeff:      0.140D+01
 Gap=     0.347 Goal=   None    Shift=    0.000
 Gap=     0.257 Goal=   None    Shift=    0.000
 RMSDP=4.98D-07 MaxDP=2.30D-05 DE=-1.54D-08 OVMax= 1.85D-04

 Cycle  14  Pass 1  IDiag  1:
 RMSU=  7.44D-08    CP:  1.00D+00  1.04D+00  9.99D-01  1.11D+00  1.98D+00
                    CP:  1.77D+00  1.41D+00  2.11D+00  1.88D+00  2.12D+00
                    CP:  2.49D+00  2.45D+00  1.73D+00
 E= -305.877065241608     Delta-E=       -0.000000005952 Rises=F Damp=F
 DIIS: error= 5.47D-07 at cycle  14 NSaved=  14.
 NSaved=14 IEnMin=14 EnMin= -305.877065241608     IErMin=14 ErrMin= 5.47D-07
 ErrMax= 5.47D-07  0.00D+00 EMaxC= 1.00D-01 BMatC= 2.68D-10 BMatP= 2.30D-09
 IDIUse=1 WtCom= 1.00D+00 WtEn= 0.00D+00
 Coeff-Com:  0.187D-05-0.385D-05 0.689D-04 0.167D-03 0.216D-03-0.135D-02
 Coeff-Com: -0.187D-02-0.214D-02 0.103D-01 0.363D-01-0.120D-01-0.184D+00
 Coeff-Com: -0.644D-01 0.122D+01
 Coeff:      0.187D-05-0.385D-05 0.689D-04 0.167D-03 0.216D-03-0.135D-02
 Coeff:     -0.187D-02-0.214D-02 0.103D-01 0.363D-01-0.120D-01-0.184D+00
 Coeff:     -0.644D-01 0.122D+01
 Gap=     0.347 Goal=   None    Shift=    0.000
 Gap=     0.257 Goal=   None    Shift=    0.000
 RMSDP=1.54D-07 MaxDP=7.29D-06 DE=-5.95D-09 OVMax= 5.47D-05

 Cycle  15  Pass 1  IDiag  1:
 RMSU=  2.81D-08    CP:  1.00D+00  1.04D+00  9.99D-01  1.11D+00  1.98D+00
                    CP:  1.77D+00  1.41D+00  2.11D+00  1.90D+00  2.16D+00
                    CP:  2.62D+00  2.72D+00  2.11D+00  1.51D+00
 E= -305.877065242172     Delta-E=       -0.000000000565 Rises=F Damp=F
 DIIS: error= 1.75D-07 at cycle  15 NSaved=  15.
 NSaved=15 IEnMin=15 EnMin= -305.877065242172     IErMin=15 ErrMin= 1.75D-07
 ErrMax= 1.75D-07  0.00D+00 EMaxC= 1.00D-01 BMatC= 3.29D-11 BMatP= 2.68D-10
 IDIUse=1 WtCom= 1.00D+00 WtEn= 0.00D+00
 Coeff-Com:  0.114D-04-0.246D-04-0.113D-03-0.194D-03 0.395D-04 0.164D-02
 Coeff-Com:  0.379D-03-0.750D-02-0.417D-02 0.156D-01 0.435D-01-0.482D-02
 Coeff-Com: -0.181D+00 0.334D-01 0.110D+01
 Coeff:      0.114D-04-0.246D-04-0.113D-03-0.194D-03 0.395D-04 0.164D-02
 Coeff:      0.379D-03-0.750D-02-0.417D-02 0.156D-01 0.435D-01-0.482D-02
 Coeff:     -0.181D+00 0.334D-01 0.110D+01
 Gap=     0.347 Goal=   None    Shift=    0.000
 Gap=     0.257 Goal=   None    Shift=    0.000
 RMSDP=4.03D-08 MaxDP=1.77D-06 DE=-5.65D-10 OVMax= 1.24D-05

 Cycle  16  Pass 1  IDiag  1:
 RMSU=  8.50D-09    CP:  1.00D+00  1.04D+00  9.99D-01  1.11D+00  1.98D+00
                    CP:  1.77D+00  1.41D+00  2.12D+00  1.90D+00  2.17D+00
                    CP:  2.64D+00  2.78D+00  2.20D+00  1.75D+00  1.42D+00
 E= -305.877065242213     Delta-E=       -0.000000000041 Rises=F Damp=F
 DIIS: error= 5.35D-08 at cycle  16 NSaved=  16.
 NSaved=16 IEnMin=16 EnMin= -305.877065242213     IErMin=16 ErrMin= 5.35D-08
 ErrMax= 5.35D-08  0.00D+00 EMaxC= 1.00D-01 BMatC= 3.59D-12 BMatP= 3.29D-11
 IDIUse=1 WtCom= 1.00D+00 WtEn= 0.00D+00
 Coeff-Com: -0.162D-05 0.324D-05 0.167D-05 0.700D-05-0.206D-04 0.351D-04
 Coeff-Com:  0.820D-04 0.640D-03-0.795D-04-0.482D-02-0.821D-03 0.171D-01
 Coeff-Com:  0.156D-01-0.122D+00-0.790D-01 0.117D+01
 Coeff:     -0.162D-05 0.324D-05 0.167D-05 0.700D-05-0.206D-04 0.351D-04
 Coeff:      0.820D-04 0.640D-03-0.795D-04-0.482D-02-0.821D-03 0.171D-01
 Coeff:      0.156D-01-0.122D+00-0.790D-01 0.117D+01
 Gap=     0.347 Goal=   None    Shift=    0.000
 Gap=     0.257 Goal=   None    Shift=    0.000
 RMSDP=1.16D-08 MaxDP=3.20D-07 DE=-4.08D-11 OVMax= 2.22D-06

 Cycle  17  Pass 1  IDiag  1:
 RMSU=  2.80D-09    CP:  1.00D+00  1.04D+00  9.99D-01  1.11D+00  1.98D+00
                    CP:  1.77D+00  1.41D+00  2.12D+00  1.90D+00  2.17D+00
                    CP:  2.65D+00  2.79D+00  2.22D+00  1.82D+00  1.62D+00
                    CP:  1.43D+00
 E= -305.877065242217     Delta-E=       -0.000000000004 Rises=F Damp=F
 DIIS: error= 1.92D-08 at cycle  17 NSaved=  17.
 NSaved=17 IEnMin=17 EnMin= -305.877065242217     IErMin=17 ErrMin= 1.92D-08
 ErrMax= 1.92D-08  0.00D+00 EMaxC= 1.00D-01 BMatC= 2.53D-13 BMatP= 3.59D-12
 IDIUse=1 WtCom= 1.00D+00 WtEn= 0.00D+00
 Coeff-Com: -0.730D-06 0.160D-05 0.683D-05 0.108D-04-0.451D-05-0.109D-03
 Coeff-Com: -0.379D-04 0.535D-03 0.211D-03-0.115D-02-0.347D-02 0.202D-03
 Coeff-Com:  0.145D-01-0.261D-03-0.891D-01-0.280D-01 0.111D+01
 Coeff:     -0.730D-06 0.160D-05 0.683D-05 0.108D-04-0.451D-05-0.109D-03
 Coeff:     -0.379D-04 0.535D-03 0.211D-03-0.115D-02-0.347D-02 0.202D-03
 Coeff:      0.145D-01-0.261D-03-0.891D-01-0.280D-01 0.111D+01
 Gap=     0.347 Goal=   None    Shift=    0.000
 Gap=     0.257 Goal=   None    Shift=    0.000
 RMSDP=2.53D-09 MaxDP=8.83D-08 DE=-3.98D-12 OVMax= 6.08D-07

 SCF Done:  E(UM062X) =  -305.877065242     A.U. after   17 cycles
            NFock= 17  Conv=0.25D-08     -V/T= 2.0052
 <Sx>= 0.0000 <Sy>= 0.0000 <Sz>= 0.5000 <S**2>= 0.7603 S= 0.5052
 <L.S>= 0.000000000000E+00
 KE= 3.042875829005D+02 PE=-1.081258837601D+03 EE= 2.899948122056D+02
 Annihilation of the first spin contaminant:
 S**2 before annihilation     0.7603,   after     0.7500
 Leave Link  502 at Sat Jun 22 12:35:44 2019, MaxMem=   671088640 cpu:             710.8 elap:              35.6
 (Enter /shared/centos7/gaussian/g16/l601.exe)
 Copying SCF densities to generalized density rwf, IOpCl= 1 IROHF=0.

 **********************************************************************

            Population analysis using the SCF density.

 **********************************************************************

 Orbital symmetries:
 Alpha Orbitals:
       Occupied  (A) (A) (A) (A) (A) (A) (A) (A) (A) (A) (A) (A)
                 (A) (A) (A) (A) (A) (A) (A) (A) (A) (A)
       Virtual   (A) (A) (A) (A) (A) (A) (A) (A) (A) (A) (A) (A)
                 (A) (A) (A) (A) (A) (A) (A) (A) (A) (A) (A) (A)
                 (A) (A) (A) (A) (A) (A) (A) (A) (A) (A) (A) (A)
                 (A) (A) (A) (A) (A) (A) (A) (A) (A) (A) (A) (A)
                 (A) (A) (A) (A) (A) (A) (A) (A) (A) (A) (A) (A)
                 (A) (A) (A) (A) (A) (A) (A) (A) (A) (A) (A) (A)
                 (A) (A) (A) (A) (A) (A) (A) (A) (A) (A) (A) (A)
                 (A) (A) (A) (A) (A) (A) (A) (A) (A) (A) (A) (A)
                 (A) (A) (A) (A) (A) (A) (A) (A) (A) (A) (A) (A)
                 (A) (A) (A) (A) (A) (A) (A) (A) (A) (A) (A) (A)
                 (A) (A) (A) (A) (A) (A) (A) (A) (A) (A) (A) (A)
                 (A) (A) (A) (A) (A) (A) (A) (A) (A) (A) (A) (A)
                 (A) (A) (A) (A) (A) (A) (A) (A) (A) (A) (A) (A)
                 (A) (A) (A) (A) (A) (A) (A) (A) (A) (A) (A) (A)
                 (A) (A) (A) (A) (A) (A) (A) (A) (A) (A) (A) (A)
                 (A) (A) (A) (A) (A) (A) (A) (A) (A) (A) (A) (A)
                 (A) (A) (A) (A) (A) (A) (A) (A) (A) (A) (A) (A)
                 (A) (A) (A) (A) (A) (A) (A) (A) (A) (A) (A) (A)
                 (A) (A) (A) (A) (A) (A) (A) (A) (A) (A)
 Beta  Orbitals:
       Occupied  (A) (A) (A) (A) (A) (A) (A) (A) (A) (A) (A) (A)
                 (A) (A) (A) (A) (A) (A) (A) (A) (A)
       Virtual   (A) (A) (A) (A) (A) (A) (A) (A) (A) (A) (A) (A)
                 (A) (A) (A) (A) (A) (A) (A) (A) (A) (A) (A) (A)
                 (A) (A) (A) (A) (A) (A) (A) (A) (A) (A) (A) (A)
                 (A) (A) (A) (A) (A) (A) (A) (A) (A) (A) (A) (A)
                 (A) (A) (A) (A) (A) (A) (A) (A) (A) (A) (A) (A)
                 (A) (A) (A) (A) (A) (A) (A) (A) (A) (A) (A) (A)
                 (A) (A) (A) (A) (A) (A) (A) (A) (A) (A) (A) (A)
                 (A) (A) (A) (A) (A) (A) (A) (A) (A) (A) (A) (A)
                 (A) (A) (A) (A) (A) (A) (A) (A) (A) (A) (A) (A)
                 (A) (A) (A) (A) (A) (A) (A) (A) (A) (A) (A) (A)
                 (A) (A) (A) (A) (A) (A) (A) (A) (A) (A) (A) (A)
                 (A) (A) (A) (A) (A) (A) (A) (A) (A) (A) (A) (A)
                 (A) (A) (A) (A) (A) (A) (A) (A) (A) (A) (A) (A)
                 (A) (A) (A) (A) (A) (A) (A) (A) (A) (A) (A) (A)
                 (A) (A) (A) (A) (A) (A) (A) (A) (A) (A) (A) (A)
                 (A) (A) (A) (A) (A) (A) (A) (A) (A) (A) (A) (A)
                 (A) (A) (A) (A) (A) (A) (A) (A) (A) (A) (A) (A)
                 (A) (A) (A) (A) (A) (A) (A) (A) (A) (A) (A) (A)
                 (A) (A) (A) (A) (A) (A) (A) (A) (A) (A) (A)
 The electronic state is 2-A.
 Alpha  occ. eigenvalues --  -19.70409 -19.69505 -19.62879 -10.59823 -10.56645
 Alpha  occ. eigenvalues --   -1.32207  -1.15197  -0.98532  -0.85246  -0.72694
 Alpha  occ. eigenvalues --   -0.65246  -0.60965  -0.56770  -0.55302  -0.53998
 Alpha  occ. eigenvalues --   -0.52315  -0.46392  -0.42052  -0.40542  -0.37860
 Alpha  occ. eigenvalues --   -0.36248  -0.29994
 Alpha virt. eigenvalues --    0.04724   0.06265   0.08759   0.11443   0.12086
 Alpha virt. eigenvalues --    0.15610   0.18825   0.21286   0.23028   0.25352
 Alpha virt. eigenvalues --    0.28532   0.31086   0.34846   0.38714   0.39771
 Alpha virt. eigenvalues --    0.41120   0.42930   0.43102   0.44982   0.47323
 Alpha virt. eigenvalues --    0.48014   0.49774   0.50922   0.51257   0.53565
 Alpha virt. eigenvalues --    0.56087   0.56730   0.60159   0.65355   0.66612
 Alpha virt. eigenvalues --    0.68590   0.70578   0.72116   0.73178   0.75520
 Alpha virt. eigenvalues --    0.78046   0.78686   0.82526   0.87441   0.89101
 Alpha virt. eigenvalues --    0.92211   0.95184   0.98502   1.01526   1.03434
 Alpha virt. eigenvalues --    1.05372   1.05727   1.09217   1.10428   1.12803
 Alpha virt. eigenvalues --    1.15736   1.20129   1.20524   1.23208   1.24135
 Alpha virt. eigenvalues --    1.27917   1.30427   1.31030   1.33819   1.33915
 Alpha virt. eigenvalues --    1.39483   1.40509   1.43227   1.46574   1.50343
 Alpha virt. eigenvalues --    1.54715   1.55802   1.59005   1.60092   1.69053
 Alpha virt. eigenvalues --    1.74785   1.88513   1.92111   1.95261   1.97108
 Alpha virt. eigenvalues --    1.97579   2.02328   2.05994   2.08404   2.09774
 Alpha virt. eigenvalues --    2.20559   2.22425   2.24260   2.27808   2.30996
 Alpha virt. eigenvalues --    2.33664   2.43290   2.48145   2.50758   2.52268
 Alpha virt. eigenvalues --    2.55748   2.61923   2.63720   2.69537   2.73051
 Alpha virt. eigenvalues --    2.76800   2.79934   2.83958   2.88005   2.91909
 Alpha virt. eigenvalues --    2.93791   2.94300   2.96439   3.01864   3.02594
 Alpha virt. eigenvalues --    3.06574   3.07060   3.10816   3.14343   3.17755
 Alpha virt. eigenvalues --    3.18277   3.20690   3.22579   3.25199   3.27646
 Alpha virt. eigenvalues --    3.29435   3.32175   3.34198   3.38797   3.41169
 Alpha virt. eigenvalues --    3.43248   3.44432   3.44811   3.47116   3.51489
 Alpha virt. eigenvalues --    3.54006   3.55812   3.57246   3.59420   3.65435
 Alpha virt. eigenvalues --    3.67131   3.69216   3.71378   3.74263   3.75408
 Alpha virt. eigenvalues --    3.77044   3.78244   3.80125   3.81804   3.84636
 Alpha virt. eigenvalues --    3.85696   3.87010   3.91564   3.95330   3.96305
 Alpha virt. eigenvalues --    3.98018   3.98499   4.02617   4.04173   4.08549
 Alpha virt. eigenvalues --    4.09102   4.11613   4.14619   4.16752   4.19755
 Alpha virt. eigenvalues --    4.23974   4.31400   4.32356   4.36259   4.36664
 Alpha virt. eigenvalues --    4.39391   4.43791   4.46235   4.55948   4.61543
 Alpha virt. eigenvalues --    4.66576   4.68404   4.73367   4.76355   4.81227
 Alpha virt. eigenvalues --    4.82025   4.84951   4.86647   4.92545   4.94835
 Alpha virt. eigenvalues --    4.97012   5.03155   5.06171   5.08508   5.11797
 Alpha virt. eigenvalues --    5.12351   5.15995   5.20975   5.24238   5.29109
 Alpha virt. eigenvalues --    5.37593   5.43542   5.59952   5.64251   5.66316
 Alpha virt. eigenvalues --    5.71447   5.75723   5.81181   5.96040   6.02206
 Alpha virt. eigenvalues --    6.12666   6.15671   6.25818   6.29123   6.34954
 Alpha virt. eigenvalues --    6.38731   6.40918   6.44288   6.48318   6.55731
 Alpha virt. eigenvalues --    6.56611   6.58208   6.62075   6.64122   6.73232
 Alpha virt. eigenvalues --    6.76132   6.84228   6.87095   6.88302   6.94100
 Alpha virt. eigenvalues --    7.13542   7.20983   7.24779   7.30085   7.49624
 Alpha virt. eigenvalues --    7.65179   9.99454  11.01791  11.65478  11.67243
 Alpha virt. eigenvalues --   12.80150
  Beta  occ. eigenvalues --  -19.70190 -19.68535 -19.62847 -10.59843 -10.56111
  Beta  occ. eigenvalues --   -1.30410  -1.15063  -0.96058  -0.83804  -0.71590
  Beta  occ. eigenvalues --   -0.63425  -0.58328  -0.56193  -0.53752  -0.52675
  Beta  occ. eigenvalues --   -0.51075  -0.45674  -0.40498  -0.38128  -0.36331
  Beta  occ. eigenvalues --   -0.34101
  Beta virt. eigenvalues --   -0.08433   0.04901   0.06302   0.08847   0.11702
  Beta virt. eigenvalues --    0.12295   0.15831   0.19433   0.21496   0.23493
  Beta virt. eigenvalues --    0.26065   0.28852   0.31485   0.35039   0.38932
  Beta virt. eigenvalues --    0.39912   0.41405   0.43050   0.43691   0.45587
  Beta virt. eigenvalues --    0.48547   0.48655   0.50984   0.51425   0.51941
  Beta virt. eigenvalues --    0.53680   0.56571   0.57016   0.60663   0.65651
  Beta virt. eigenvalues --    0.66872   0.68627   0.70815   0.72362   0.73381
  Beta virt. eigenvalues --    0.75518   0.78307   0.78962   0.82642   0.87803
  Beta virt. eigenvalues --    0.89369   0.92520   0.95386   0.98712   1.01218
  Beta virt. eigenvalues --    1.04083   1.05563   1.05977   1.09243   1.10694
  Beta virt. eigenvalues --    1.12923   1.16181   1.20542   1.21166   1.23459
  Beta virt. eigenvalues --    1.24593   1.28427   1.30786   1.31154   1.34041
  Beta virt. eigenvalues --    1.34543   1.39765   1.40952   1.43388   1.47034
  Beta virt. eigenvalues --    1.51201   1.55217   1.56117   1.59633   1.60560
  Beta virt. eigenvalues --    1.70310   1.75820   1.88672   1.92644   1.95913
  Beta virt. eigenvalues --    1.97419   1.98144   2.02673   2.06324   2.09624
  Beta virt. eigenvalues --    2.09999   2.20599   2.22608   2.24719   2.28590
  Beta virt. eigenvalues --    2.31581   2.34303   2.44054   2.48375   2.50317
  Beta virt. eigenvalues --    2.53399   2.57148   2.63104   2.64751   2.69536
  Beta virt. eigenvalues --    2.74512   2.77253   2.81627   2.85397   2.89130
  Beta virt. eigenvalues --    2.92517   2.94748   2.95279   2.97812   3.03643
  Beta virt. eigenvalues --    3.04096   3.07142   3.08708   3.11289   3.14459
  Beta virt. eigenvalues --    3.18539   3.19029   3.22067   3.22817   3.25592
  Beta virt. eigenvalues --    3.28138   3.30225   3.32723   3.35242   3.39287
  Beta virt. eigenvalues --    3.41600   3.43561   3.45441   3.46157   3.47590
  Beta virt. eigenvalues --    3.51952   3.54244   3.55867   3.57450   3.60075
  Beta virt. eigenvalues --    3.65914   3.67662   3.69458   3.71749   3.74772
  Beta virt. eigenvalues --    3.75845   3.77104   3.78645   3.80292   3.82288
  Beta virt. eigenvalues --    3.85090   3.86139   3.87383   3.92194   3.95795
  Beta virt. eigenvalues --    3.96578   3.98154   3.98764   4.02988   4.04408
  Beta virt. eigenvalues --    4.09124   4.09401   4.11766   4.15050   4.17075
  Beta virt. eigenvalues --    4.20089   4.24892   4.31917   4.33191   4.36719
  Beta virt. eigenvalues --    4.37712   4.39984   4.44938   4.47130   4.56384
  Beta virt. eigenvalues --    4.62109   4.67133   4.68942   4.73980   4.77664
  Beta virt. eigenvalues --    4.82025   4.82862   4.85275   4.87365   4.93233
  Beta virt. eigenvalues --    4.95790   4.98617   5.04022   5.07260   5.09458
  Beta virt. eigenvalues --    5.12148   5.13686   5.17041   5.21346   5.26195
  Beta virt. eigenvalues --    5.30675   5.38073   5.46906   5.60360   5.65015
  Beta virt. eigenvalues --    5.68932   5.72899   5.76927   5.82426   5.96206
  Beta virt. eigenvalues --    6.02794   6.13325   6.16283   6.26781   6.29806
  Beta virt. eigenvalues --    6.35115   6.38795   6.41898   6.44870   6.49684
  Beta virt. eigenvalues --    6.55807   6.57693   6.60417   6.62521   6.66180
  Beta virt. eigenvalues --    6.73390   6.77548   6.84567   6.87413   6.89503
  Beta virt. eigenvalues --    6.94085   7.13590   7.20901   7.25805   7.30152
  Beta virt. eigenvalues --    7.49789   7.65570  10.00199  11.02490  11.65741
  Beta virt. eigenvalues --   11.67491  12.81201
          Condensed to atoms (all electrons):
               1          2          3          4          5          6
     1  O    7.860868  -0.000006  -0.000017   0.333311  -0.044799  -0.041757
     2  O   -0.000006   7.893520   0.032820   0.002615   0.004789   0.000003
     3  O   -0.000017   0.032820   8.096504  -0.000747  -0.084910   0.000902
     4  C    0.333311   0.002615  -0.000747   4.686517   0.293753   0.402396
     5  C   -0.044799   0.004789  -0.084910   0.293753   5.360942  -0.052051
     6  H   -0.041757   0.000003   0.000902   0.402396  -0.052051   0.662308
     7  H   -0.051739  -0.000111  -0.000052   0.383862  -0.047524  -0.082768
     8  H    0.000484  -0.040451   0.202334  -0.016984   0.236326   0.000366
     9  H   -0.004458   0.000969  -0.003794  -0.032810   0.375563   0.000601
    10  H    0.003199   0.006252  -0.002293  -0.024663   0.358047   0.003092
    11  H    0.329764  -0.000010  -0.000003  -0.049364  -0.008676   0.009927
    12  H    0.000001   0.312735  -0.043662   0.000037  -0.003734  -0.000002
               7          8          9         10         11         12
     1  O   -0.051739   0.000484  -0.004458   0.003199   0.329764   0.000001
     2  O   -0.000111  -0.040451   0.000969   0.006252  -0.000010   0.312735
     3  O   -0.000052   0.202334  -0.003794  -0.002293  -0.000003  -0.043662
     4  C    0.383862  -0.016984  -0.032810  -0.024663  -0.049364   0.000037
     5  C   -0.047524   0.236326   0.375563   0.358047  -0.008676  -0.003734
     6  H   -0.082768   0.000366   0.000601   0.003092   0.009927  -0.000002
     7  H    0.730372   0.000604   0.006650  -0.006748  -0.004363   0.000008
     8  H    0.000604   0.400794  -0.009751  -0.009971   0.000513   0.002011
     9  H    0.006650  -0.009751   0.600432  -0.045554   0.006307   0.001960
    10  H   -0.006748  -0.009971  -0.045554   0.582155   0.000522  -0.001799
    11  H   -0.004363   0.000513   0.006307   0.000522   0.467630  -0.000002
    12  H    0.000008   0.002011   0.001960  -0.001799  -0.000002   0.463655
          Atomic-Atomic Spin Densities.
               1          2          3          4          5          6
     1  O    0.018800   0.000007  -0.000148   0.003958  -0.006935  -0.003032
     2  O    0.000007   0.108358  -0.060697  -0.000157   0.022512  -0.000159
     3  O   -0.000148  -0.060697   0.573195   0.000732  -0.106289   0.002184
     4  C    0.003958  -0.000157   0.000732  -0.049745  -0.014948   0.002561
     5  C   -0.006935   0.022512  -0.106289  -0.014948   0.702800  -0.010921
     6  H   -0.003032  -0.000159   0.002184   0.002561  -0.010921   0.044162
     7  H    0.001601   0.000099  -0.000557   0.014979  -0.013979  -0.010175
     8  H   -0.000158   0.008190  -0.014824   0.006140   0.029850  -0.001080
     9  H   -0.000088  -0.000915   0.002242   0.001461  -0.002957   0.000257
    10  H   -0.000395  -0.002281   0.003459  -0.001053  -0.001435   0.000854
    11  H   -0.000512  -0.000008   0.000073   0.000994   0.001581   0.000488
    12  H    0.000003   0.001081  -0.001473  -0.000011   0.001888  -0.000012
               7          8          9         10         11         12
     1  O    0.001601  -0.000158  -0.000088  -0.000395  -0.000512   0.000003
     2  O    0.000099   0.008190  -0.000915  -0.002281  -0.000008   0.001081
     3  O   -0.000557  -0.014824   0.002242   0.003459   0.000073  -0.001473
     4  C    0.014979   0.006140   0.001461  -0.001053   0.000994  -0.000011
     5  C   -0.013979   0.029850  -0.002957  -0.001435   0.001581   0.001888
     6  H   -0.010175  -0.001080   0.000257   0.000854   0.000488  -0.000012
     7  H    0.032618  -0.000196  -0.000413  -0.001324  -0.000859   0.000009
     8  H   -0.000196  -0.070885   0.001105   0.001873  -0.000090   0.000654
     9  H   -0.000413   0.001105  -0.037146   0.003919   0.000087  -0.000258
    10  H   -0.001324   0.001873   0.003919  -0.027757   0.000068  -0.000202
    11  H   -0.000859  -0.000090   0.000087   0.000068  -0.002593  -0.000003
    12  H    0.000009   0.000654  -0.000258  -0.000202  -0.000003  -0.004545
 Mulliken charges and spin densities:
               1          2
     1  O   -0.384852   0.013102
     2  O   -0.213126   0.076029
     3  O   -0.197083   0.397898
     4  C    0.022076  -0.035088
     5  C   -0.387726   0.601168
     6  H    0.096983   0.025128
     7  H    0.071809   0.021805
     8  H    0.233728  -0.039421
     9  H    0.103884  -0.032705
    10  H    0.137760  -0.024273
    11  H    0.247756  -0.000774
    12  H    0.268792  -0.002868
 Sum of Mulliken charges =  -0.00000   1.00000
 Mulliken charges and spin densities with hydrogens summed into heavy atoms:
               1          2
     1  O   -0.137096   0.012328
     2  O    0.055666   0.073161
     3  O    0.036645   0.358478
     4  C    0.190868   0.011845
     5  C   -0.146082   0.544189
 Electronic spatial extent (au):  <R**2>=            740.0817
 Charge=             -0.0000 electrons
 Dipole moment (field-independent basis, Debye):
    X=              0.0858    Y=             -2.5898    Z=             -0.8356  Tot=              2.7226
 Quadrupole moment (field-independent basis, Debye-Ang):
   XX=            -39.5428   YY=            -29.9987   ZZ=            -28.7424
   XY=             -0.6722   XZ=             -3.9321   YZ=              3.3459
 Traceless Quadrupole moment (field-independent basis, Debye-Ang):
   XX=             -6.7815   YY=              2.7626   ZZ=              4.0189
   XY=             -0.6722   XZ=             -3.9321   YZ=              3.3459
 Octapole moment (field-independent basis, Debye-Ang**2):
  XXX=             23.7394  YYY=             -0.1279  ZZZ=             -5.8118  XYY=              1.4330
  XXY=            -13.8774  XXZ=             -8.5788  XZZ=              2.0567  YZZ=             -3.6752
  YYZ=             -2.2051  XYZ=             -0.2242
 Hexadecapole moment (field-independent basis, Debye-Ang**3):
 XXXX=           -796.0326 YYYY=            -79.0603 ZZZZ=            -68.8360 XXXY=              0.7641
 XXXZ=            -26.8041 YYYX=             -4.4418 YYYZ=              2.5091 ZZZX=              3.7061
 ZZZY=              3.4015 XXYY=           -123.3680 XXZZ=           -116.0389 YYZZ=            -22.6544
 XXYZ=             18.9240 YYXZ=             -0.3597 ZZXY=              1.8500
 N-N= 1.810993772524D+02 E-N=-1.081258837469D+03  KE= 3.042875829005D+02
                          Isotropic Fermi Contact Couplings
        Atom                 a.u.       MegaHertz       Gauss      10(-4) cm-1
     1  O(17)              0.00181      -1.09833      -0.39191      -0.36636
     2  O(17)              0.00682      -4.13223      -1.47448      -1.37837
     3  O(17)              0.08745     -53.01119     -18.91571     -17.68263
     4  C(13)             -0.01042     -11.71121      -4.17885      -3.90644
     5  C(13)              0.19715     221.63855      79.08615      73.93066
     6  H(1)               0.01210      54.08450      19.29870      18.04065
     7  H(1)               0.01090      48.72734      17.38713      16.25369
     8  H(1)              -0.03672    -164.11557     -58.56052     -54.74306
     9  H(1)              -0.00717     -32.04802     -11.43553     -10.69007
    10  H(1)              -0.00283     -12.64750      -4.51294      -4.21875
    11  H(1)              -0.00068      -3.04632      -1.08700      -1.01614
    12  H(1)              -0.00186      -8.30173      -2.96226      -2.76916
 --------------------------------------------------------
       Center         ----  Spin Dipole Couplings  ----
                      3XX-RR        3YY-RR        3ZZ-RR
 --------------------------------------------------------
     1   Atom        0.078021     -0.041780     -0.036241
     2   Atom        0.311907     -0.142522     -0.169385
     3   Atom        1.108599     -0.243794     -0.864805
     4   Atom        0.018260     -0.009695     -0.008565
     5   Atom        0.159093      0.160667     -0.319759
     6   Atom        0.001131      0.004419     -0.005550
     7   Atom        0.004913     -0.006181      0.001268
     8   Atom        0.139519     -0.041820     -0.097699
     9   Atom       -0.019861     -0.011233      0.031094
    10   Atom       -0.008284      0.007923      0.000361
    11   Atom        0.004142     -0.002391     -0.001751
    12   Atom       -0.004019      0.002139      0.001879
 --------------------------------------------------------
                        XY            XZ            YZ
 --------------------------------------------------------
     1   Atom       -0.020076      0.000671      0.007579
     2   Atom        0.248440     -0.165389     -0.048083
     3   Atom        1.293147     -0.552428     -0.341413
     4   Atom        0.006665     -0.016485     -0.004719
     5   Atom        0.483214     -0.023755     -0.024440
     6   Atom       -0.008462     -0.003478      0.006183
     7   Atom       -0.000107     -0.007544     -0.001379
     8   Atom        0.120953     -0.059123     -0.017022
     9   Atom        0.017439     -0.002209      0.027235
    10   Atom       -0.002211      0.021718     -0.036345
    11   Atom        0.000833      0.007111      0.002779
    12   Atom       -0.004986     -0.007288      0.017948
 --------------------------------------------------------


 ---------------------------------------------------------------------------------
              Anisotropic Spin Dipole Couplings in Principal Axis System
 ---------------------------------------------------------------------------------

       Atom             a.u.   MegaHertz   Gauss  10(-4) cm-1        Axes

              Baa    -0.0494     3.576     1.276     1.193  0.1374  0.8557 -0.4989
     1 O(17)  Bbb    -0.0319     2.306     0.823     0.769  0.0845  0.4918  0.8666
              Bcc     0.0813    -5.883    -2.099    -1.962  0.9869 -0.1613 -0.0048
 
              Baa    -0.2622    18.975     6.771     6.329 -0.4591  0.7883 -0.4096
     2 O(17)  Bbb    -0.2050    14.832     5.293     4.948  0.0480  0.4824  0.8746
              Bcc     0.4672   -33.807   -12.063   -11.277  0.8871  0.3819 -0.2593
 
              Baa    -1.0287    74.433    26.559    24.828 -0.4397  0.8503  0.2893
     3 O(17)  Bbb    -1.0083    72.963    26.035    24.338  0.3320 -0.1454  0.9320
              Bcc     2.0370  -147.396   -52.594   -49.166  0.8345  0.5058 -0.2184
 
              Baa    -0.0168    -2.249    -0.802    -0.750  0.3746  0.2441  0.8945
     4 C(13)  Bbb    -0.0111    -1.485    -0.530    -0.495 -0.2917  0.9468 -0.1362
              Bcc     0.0278     3.734     1.332     1.246  0.8801  0.2099 -0.4259
 
              Baa    -0.3234   -43.400   -15.486   -14.477 -0.6912  0.6992  0.1826
     5 C(13)  Bbb    -0.3209   -43.059   -15.365   -14.363  0.1538 -0.1045  0.9826
              Bcc     0.6443    86.459    30.851    28.840  0.7061  0.7073 -0.0353
 
              Baa    -0.0086    -4.571    -1.631    -1.525 -0.1141 -0.4867  0.8661
     6 H(1)   Bbb    -0.0053    -2.852    -1.018    -0.951  0.8053  0.4652  0.3675
              Bcc     0.0139     7.422     2.649     2.476 -0.5818  0.7394  0.3389
 
              Baa    -0.0068    -3.643    -1.300    -1.215  0.2606  0.8818  0.3931
     7 H(1)   Bbb    -0.0041    -2.166    -0.773    -0.722  0.5649 -0.4695  0.6786
              Bcc     0.0109     5.808     2.073     1.938  0.7829  0.0452 -0.6205
 
              Baa    -0.1175   -62.699   -22.373   -20.914  0.3982 -0.4574  0.7951
     8 H(1)   Bbb    -0.0943   -50.335   -17.961   -16.790 -0.2563  0.7768  0.5752
              Bcc     0.2119   113.034    40.333    37.704  0.8808  0.4329 -0.1920
 
              Baa    -0.0392   -20.904    -7.459    -6.973 -0.6594  0.6938 -0.2896
     9 H(1)   Bbb    -0.0058    -3.081    -1.099    -1.028  0.7460  0.5562 -0.3662
              Bcc     0.0450    23.984     8.558     8.000  0.0930  0.4575  0.8843
 
              Baa    -0.0400   -21.317    -7.606    -7.110 -0.4563  0.5246  0.7188
    10 H(1)   Bbb    -0.0058    -3.112    -1.111    -1.038  0.8377  0.5258  0.1480
              Bcc     0.0458    24.429     8.717     8.149  0.3002 -0.6696  0.6793
 
              Baa    -0.0073    -3.869    -1.381    -1.291 -0.4707 -0.3758  0.7983
    11 H(1)   Bbb    -0.0021    -1.107    -0.395    -0.369 -0.3641  0.9069  0.2122
              Bcc     0.0093     4.977     1.776     1.660  0.8036  0.1908  0.5637
 
              Baa    -0.0162    -8.650    -3.086    -2.885  0.1618 -0.6672  0.7271
    12 H(1)   Bbb    -0.0066    -3.501    -1.249    -1.168  0.9373  0.3344  0.0983
              Bcc     0.0228    12.151     4.336     4.053 -0.3087  0.6656  0.6795
 

 ---------------------------------------------------------------------------------

 No NMR shielding tensors so no spin-rotation constants.
 Leave Link  601 at Sat Jun 22 12:35:45 2019, MaxMem=   671088640 cpu:              12.5 elap:               0.7
 (Enter /shared/centos7/gaussian/g16/l701.exe)
 ... and contract with generalized density number  0.
 Compute integral first derivatives.
 Leave Link  701 at Sat Jun 22 12:35:45 2019, MaxMem=   671088640 cpu:               5.4 elap:               0.3
 (Enter /shared/centos7/gaussian/g16/l702.exe)
 L702 exits ... SP integral derivatives will be done elsewhere.
 Leave Link  702 at Sat Jun 22 12:35:46 2019, MaxMem=   671088640 cpu:               0.9 elap:               0.1
 (Enter /shared/centos7/gaussian/g16/l703.exe)
 Integral derivatives from FoFJK, PRISM(SPDF).
 Compute integral first derivatives, UseDBF=F ICtDFT=           0.
 Calling FoFJK, ICntrl=      2127 FMM=F ISym2X=0 I1Cent= 0 IOpClX= 1 NMat=1 NMatS=1 NMatT=0.
 FoFJK:  IHMeth= 1 ICntrl=    2127 DoSepK=F KAlg= 0 I1Cent=           0 FoldK=F
 IRaf=         0 NMat=       1 IRICut=       1 DoRegI=T DoRafI=F ISym2E= 0 IDoP0=0 IntGTp=1.
 FoFCou: FMM=F IPFlag=           0 FMFlag=      100000 FMFlg1=         800
         NFxFlg=           0 DoJE=F BraDBF=F KetDBF=F FulRan=T
         wScrn=  0.000000 ICntrl=      2127 IOpCl=  1 I1Cent=           0 NGrid=           0
         NMat0=    1 NMatS0=      1 NMatT0=    0 NMatD0=    1 NMtDS0=    0 NMtDT0=    0
 Symmetry not used in FoFCou.
 Leave Link  703 at Sat Jun 22 12:35:52 2019, MaxMem=   671088640 cpu:             138.0 elap:               6.9
 (Enter /shared/centos7/gaussian/g16/l716.exe)
 Dipole        = 3.37582192D-02-1.01891478D+00-3.28741995D-01
 ***** Axes restored to original set *****
 -------------------------------------------------------------------
 Center     Atomic                   Forces (Hartrees/Bohr)
 Number     Number              X              Y              Z
 -------------------------------------------------------------------
      1        8           0.014437396    0.017660045    0.025056042
      2        8           0.049170589    0.004303955    0.038736415
      3        8          -0.051774721    0.003956520   -0.021303187
      4        6          -0.000316647   -0.014588756   -0.006405546
      5        6           0.011138232    0.006569338   -0.009618673
      6        1           0.009173054    0.006539563    0.003807191
      7        1          -0.004913618    0.000818889    0.005947677
      8        1           0.008312003    0.014296431    0.002029211
      9        1          -0.004449535   -0.011145387   -0.007663162
     10        1          -0.013473912   -0.001567764    0.006217837
     11        1          -0.018239762   -0.008900803   -0.024064177
     12        1           0.000936919   -0.017942031   -0.012739628
 -------------------------------------------------------------------
 Cartesian Forces:  Max     0.051774721 RMS     0.017582653
 Leave Link  716 at Sat Jun 22 12:35:53 2019, MaxMem=   671088640 cpu:               1.2 elap:               0.1
 (Enter /shared/centos7/gaussian/g16/l103.exe)

 GradGradGradGradGradGradGradGradGradGradGradGradGradGradGradGradGradGrad
 Berny optimization.
 FormGI is forming the generalized inverse of G from B-inverse, IUseBI=4.
 Internal  Forces:  Max     0.057707196 RMS     0.011943714
 Search for a local minimum.
 Step number   1 out of a maximum of  100
 All quantities printed in internal units (Hartrees-Bohrs-Radians)
 RMS Force = .11949D-01 SwitMx=.10000D-02 MixMth= 1
 Mixed Optimization -- RFO/linear search
 Second derivative matrix not updated -- first step.
 ITU=  0
     Eigenvalues ---    0.00230   0.00230   0.00467   0.01676   0.02406
     Eigenvalues ---    0.04767   0.04814   0.05023   0.05863   0.11581
     Eigenvalues ---    0.11852   0.13712   0.14081   0.16000   0.16000
     Eigenvalues ---    0.16000   0.16000   0.21984   0.30117   0.32243
     Eigenvalues ---    0.32527   0.32556   0.32557   0.45426   0.48963
     Eigenvalues ---    0.49446   0.629321000.000001000.000001000.00000
     Eigenvalues --- 1000.000001000.000001000.000001000.000001000.00000
     Eigenvalues --- 1000.000001000.000001000.000001000.000001000.00000
     Eigenvalues --- 1000.000001000.000001000.000001000.00000
 RFO step:  Lambda=-1.34909146D-02 EMin= 2.30000000D-03
 Linear search not attempted -- first point.
 Iteration  1 RMS(Cart)=  0.06938876 RMS(Int)=  0.00270922
 Iteration  2 RMS(Cart)=  0.00277430 RMS(Int)=  0.00037398
 Iteration  3 RMS(Cart)=  0.00000732 RMS(Int)=  0.00037394
 Iteration  4 RMS(Cart)=  0.00000000 RMS(Int)=  0.00037394
 Iteration  1 RMS(Cart)=  0.00000000 RMS(Int)=  0.00000000
 ITry= 1 IFail=0 DXMaxC= 2.37D-01 DCOld= 1.00D+10 DXMaxT= 3.00D-01 DXLimC= 3.00D+00 Rises=F
 Variable       Old X    -DE/DX   Delta X   Delta X   Delta X     New X
                                 (Linear)    (Quad)   (Total)
    R1        2.64785   0.00957   0.00000   0.02046   0.02046   2.66830
    R2        1.87627  -0.03114   0.00000  -0.06189  -0.06189   1.81437
    R3        2.48693   0.05771   0.00000   0.08977   0.08977   2.57670
    R4        1.87128  -0.02117   0.00000  -0.04167  -0.04167   1.82961
    R5        2.20171   0.00985   0.00000   0.00000  -0.00000   2.20171
    R6        2.87731  -0.00296   0.00000  -0.00941  -0.00941   2.86790
    R7        2.10402  -0.01190   0.00000  -0.03541  -0.03541   2.06861
    R8        2.09838  -0.00772   0.00000  -0.02277  -0.02277   2.07561
    R9        2.58653  -0.00457   0.00000   0.00000   0.00000   2.58653
   R10        2.09890  -0.01318   0.00000  -0.03889  -0.03889   2.06001
   R11        2.09837  -0.01315   0.00000  -0.03878  -0.03878   2.05959
    A1        1.86901   0.00638   0.00000   0.03678   0.03678   1.90579
    A2        1.80106   0.01094   0.00000   0.06308   0.06308   1.86414
    A3        1.82506   0.01036   0.00000   0.05971   0.05971   1.88477
    A4        1.97730   0.00560   0.00000   0.02470   0.02463   2.00194
    A5        1.86670  -0.00177   0.00000  -0.01220  -0.01207   1.85463
    A6        1.93145  -0.00226   0.00000  -0.00434  -0.00464   1.92681
    A7        1.94360  -0.00292   0.00000  -0.01955  -0.01943   1.92417
    A8        1.89253   0.00017   0.00000   0.00861   0.00847   1.90099
    A9        1.84820   0.00080   0.00000   0.00077   0.00078   1.84898
   A10        1.93721   0.00185   0.00000  -0.00270  -0.00246   1.93475
   A11        1.97773   0.00057   0.00000   0.00946   0.00853   1.98626
   A12        1.96629   0.00511   0.00000   0.04610   0.04541   2.01170
   A13        1.84806  -0.00351   0.00000  -0.03984  -0.03987   1.80820
   A14        1.80520  -0.00521   0.00000  -0.04287  -0.04267   1.76253
   A15        1.91804   0.00018   0.00000   0.01997   0.01815   1.93618
   A16        2.57620   0.01747   0.00000   0.00000  -0.00000   2.57620
    D1        0.45468   0.00289   0.00000   0.06711   0.06713   0.52180
    D2        2.60281   0.00154   0.00000   0.04960   0.04955   2.65237
    D3       -1.67507   0.00035   0.00000   0.04149   0.04153  -1.63354
    D4        1.63064   0.00366   0.00000   0.09741   0.09741   1.72805
    D5       -0.91895   0.00043   0.00000   0.02727   0.02727  -0.89168
    D6        2.05524  -0.00076   0.00000  -0.01868  -0.01875   2.03649
    D7       -0.02152   0.00205   0.00000   0.02791   0.02816   0.00664
    D8       -2.21288  -0.00289   0.00000  -0.04527  -0.04577  -2.25866
    D9       -0.04988  -0.00030   0.00000  -0.00604  -0.00598  -0.05585
   D10       -2.12663   0.00251   0.00000   0.04055   0.04093  -2.08571
   D11        1.96519  -0.00243   0.00000  -0.03263  -0.03300   1.93218
   D12       -2.07662   0.00027   0.00000  -0.00112  -0.00099  -2.07762
   D13        2.12980   0.00308   0.00000   0.04547   0.04591   2.17572
   D14       -0.06156  -0.00186   0.00000  -0.02771  -0.02802  -0.08958
   D15       -2.69867   0.00151   0.00000   0.01726   0.01714  -2.68153
   D16       -0.54553   0.00103   0.00000   0.00146   0.00112  -0.54441
   D17        1.47167  -0.00242   0.00000  -0.01069  -0.01023   1.46144
         Item               Value     Threshold  Converged?
 Maximum Force            0.057707     0.002500     NO 
 RMS     Force            0.011949     0.001667     NO 
 Maximum Displacement     0.237235     0.010000     NO 
 RMS     Displacement     0.069300     0.006667     NO 
 Predicted change in Energy=-7.184602D-03
 Lowest energy point so far.  Saving SCF results.
 GradGradGradGradGradGradGradGradGradGradGradGradGradGradGradGradGradGrad

 Leave Link  103 at Sat Jun 22 12:35:53 2019, MaxMem=   671088640 cpu:               1.3 elap:               0.1
 (Enter /shared/centos7/gaussian/g16/l202.exe)
                          Input orientation:                          
 ---------------------------------------------------------------------
 Center     Atomic      Atomic             Coordinates (Angstroms)
 Number     Number       Type             X           Y           Z
 ---------------------------------------------------------------------
      1          8           0       -2.106625    1.529904    0.240037
      2          8           0       -0.570968   -2.561355    3.128012
      3          8           0       -1.759264   -2.194004    2.569241
      4          6           0       -1.609076    0.226158    0.024517
      5          6           0       -0.878193   -0.377703    1.209569
      6          1           0       -2.472631   -0.391243   -0.242626
      7          1           0       -0.944491    0.209704   -0.849817
      8          1           0       -1.531406   -1.488798    1.670233
      9          1           0       -0.837886    0.275781    2.081159
     10          1           0        0.105156   -0.791979    0.987639
     11          1           0       -1.539661    1.984404    0.867591
     12          1           0       -0.436560   -1.992118    3.899566
 ---------------------------------------------------------------------
                    Distance matrix (angstroms):
                    1          2          3          4          5
     1  O    0.000000
     2  O    5.238038   0.000000
     3  O    4.406057   1.363532   0.000000
     4  C    1.412005   4.298788   3.515019   0.000000
     5  C    2.467388   2.922866   2.433915   1.517625   0.000000
     6  H    2.014381   4.436993   3.415470   1.094659   2.156684
     7  H    2.069122   4.862243   4.258124   1.098364   2.142548
     8  H    3.389528   2.048887   1.165096   2.378127   1.368733
     9  H    2.563641   3.035866   2.680857   2.197038   1.090108
    10  H    3.292723   2.858152   2.818369   2.214227   1.089887
    11  H    0.960126   5.168345   4.516960   1.951159   2.476699
    12  H    5.346579   0.968190   1.886814   4.616443   3.168195
                    6          7          8          9         10
     6  H    0.000000
     7  H    1.750723   0.000000
     8  H    2.397824   3.095162   0.000000
     9  H    2.918440   2.933659   1.939992   0.000000
    10  H    2.884290   2.341233   1.905211   1.795891   0.000000
    11  H    2.783292   2.540330   3.564749   2.210120   3.229263
    12  H    4.885298   5.259529   2.534155   2.934456   3.195796
                   11         12
    11  H    0.000000
    12  H    5.120784   0.000000
 Stoichiometry    C2H7O3(2)
 Framework group  C1[X(C2H7O3)]
 Deg. of freedom    30
 Full point group                 C1      NOp   1
 RotChk:  IX=0 Diff= 4.13D-02
 Largest Abelian subgroup         C1      NOp   1
 Largest concise Abelian subgroup C1      NOp   1
                         Standard orientation:                         
 ---------------------------------------------------------------------
 Center     Atomic      Atomic             Coordinates (Angstroms)
 Number     Number       Type             X           Y           Z
 ---------------------------------------------------------------------
      1          8           0       -2.581831    0.125373   -0.508365
      2          8           0        2.611462   -0.311919    0.016533
      3          8           0        1.764028    0.745934   -0.131857
      4          6           0       -1.632295    0.134825    0.536647
      5          6           0       -0.300033   -0.503368    0.188833
      6          1           0       -1.489172    1.184755    0.811309
      7          1           0       -2.040729   -0.357539    1.429487
      8          1           0        0.710485    0.418265    0.242482
      9          1           0       -0.247036   -0.882805   -0.831733
     10          1           0        0.059196   -1.247081    0.899957
     11          1           0       -2.431756   -0.642913   -1.064293
     12          1           0        2.683710   -0.736528   -0.850577
 ---------------------------------------------------------------------
 Rotational constants (GHZ):          15.1495936           1.5190561           1.4949350
 Leave Link  202 at Sat Jun 22 12:35:53 2019, MaxMem=   671088640 cpu:               0.7 elap:               0.1
 (Enter /shared/centos7/gaussian/g16/l301.exe)
 Standard basis: CC-pVTZ (5D, 7F)
 Ernie: Thresh=  0.10000D-02 Tol=  0.10000D-05 Strict=F.
 Ernie:  15 primitive shells out of 186 were deleted.
 There are   280 symmetry adapted cartesian basis functions of A   symmetry.
 There are   248 symmetry adapted basis functions of A   symmetry.
   248 basis functions,   379 primitive gaussians,   280 cartesian basis functions
    22 alpha electrons       21 beta electrons
       nuclear repulsion energy       179.5416941839 Hartrees.
 IExCor= 4336 DFT=T Ex+Corr=M062X ExCW=0 ScaHFX=  0.540000
 ScaDFX=  1.000000  1.000000  1.000000  1.000000 ScalE2=  1.000000  1.000000
 IRadAn=      1 IRanWt=     -1 IRanGd=            0 ICorTp=0 IEmpDi=  4
 NAtoms=   12 NActive=   12 NUniq=   12 SFac= 1.00D+00 NAtFMM=   60 NAOKFM=F Big=F
 Integral buffers will be    131072 words long.
 Raffenetti 2 integral format.
 Two-electron integral symmetry is turned on.
 Leave Link  301 at Sat Jun 22 12:35:53 2019, MaxMem=   671088640 cpu:               1.2 elap:               0.1
 (Enter /shared/centos7/gaussian/g16/l302.exe)
 NPDir=0 NMtPBC=     1 NCelOv=     1 NCel=       1 NClECP=     1 NCelD=      1
         NCelK=      1 NCelE2=     1 NClLst=     1 CellRange=     0.0.
 One-electron integrals computed using PRISM.
 One-electron integral symmetry used in STVInt
 NBasis=   248 RedAO= T EigKep=  7.14D-04  NBF=   248
 NBsUse=   248 1.00D-06 EigRej= -1.00D+00 NBFU=   248
 Precomputing XC quadrature grid using
 IXCGrd= 4 IRadAn=           1 IRanWt=          -1 IRanGd=           0 AccXCQ= 0.00D+00.
 Generated NRdTot=       0 NPtTot=           0 NUsed=           0 NTot=          32
 NSgBfM=   280   280   280   280   280 MxSgAt=    12 MxSgA2=    12.
 Leave Link  302 at Sat Jun 22 12:35:53 2019, MaxMem=   671088640 cpu:               5.7 elap:               0.3
 (Enter /shared/centos7/gaussian/g16/l303.exe)
 DipDrv:  MaxL=1.
 Leave Link  303 at Sat Jun 22 12:35:53 2019, MaxMem=   671088640 cpu:               1.0 elap:               0.1
 (Enter /shared/centos7/gaussian/g16/l401.exe)
 Initial guess from the checkpoint file:  "/scratch/harms.n/gauss_scrdir/Gau-22169.chk"
 B after Tr=    -0.000000    0.000000   -0.000000
         Rot=    0.999838   -0.017809    0.000045   -0.002471 Ang=  -2.06 deg.
 Guess basis will be translated and rotated to current coordinates.
 JPrj=2 DoOrth=T DoCkMO=T.
 Initial guess <Sx>= 0.0000 <Sy>= 0.0000 <Sz>= 0.5000 <S**2>= 0.7603 S= 0.5051
 Generating alternative initial guess.
 ExpMin= 1.03D-01 ExpMax= 1.53D+04 ExpMxC= 5.22D+02 IAcc=1 IRadAn=         1 AccDes= 0.00D+00
 Harris functional with IExCor= 1009 and IRadAn=       1 diagonalized for initial guess.
 HarFok:  IExCor= 1009 AccDes= 0.00D+00 IRadAn=         1 IDoV= 1 UseB2=F ITyADJ=14
 ICtDFT=  3500011 ScaDFX=  1.000000  1.000000  1.000000  1.000000
 FoFCou: FMM=F IPFlag=           0 FMFlag=      100000 FMFlg1=           0
         NFxFlg=           0 DoJE=T BraDBF=F KetDBF=T FulRan=T
         wScrn=  0.000000 ICntrl=       500 IOpCl=  0 I1Cent=   200000004 NGrid=           0
         NMat0=    1 NMatS0=      1 NMatT0=    0 NMatD0=    1 NMtDS0=    0 NMtDT0=    0
 Petite list used in FoFCou.
 Harris En= -305.770840253240    
 Leave Link  401 at Sat Jun 22 12:35:54 2019, MaxMem=   671088640 cpu:              13.4 elap:               0.7
 (Enter /shared/centos7/gaussian/g16/l502.exe)
 Integral symmetry usage will be decided dynamically.
 UHF open shell SCF:
 Using DIIS extrapolation, IDIIS=  1040.
 NGot=   671088640 LenX=   670923676 LenY=   670844835
 Requested convergence on RMS density matrix=1.00D-08 within 900 cycles.
 Requested convergence on MAX density matrix=1.00D-06.
 Requested convergence on             energy=1.00D-06.
 No special actions if energy rises.
 Fock matrices will be formed incrementally for  20 cycles.

 Cycle   1  Pass 1  IDiag  1:
 FoFJK:  IHMeth= 1 ICntrl=       0 DoSepK=F KAlg= 0 I1Cent=           0 FoldK=F
 IRaf= 940000000 NMat=       1 IRICut=       1 DoRegI=T DoRafI=F ISym2E= 0 IDoP0=0 IntGTp=1.
 FoFCou: FMM=F IPFlag=           0 FMFlag=      100000 FMFlg1=           0
         NFxFlg=           0 DoJE=F BraDBF=F KetDBF=F FulRan=T
         wScrn=  0.000000 ICntrl=         0 IOpCl=  1 I1Cent=           0 NGrid=           0
         NMat0=    1 NMatS0=      1 NMatT0=    0 NMatD0=    1 NMtDS0=    0 NMtDT0=    0
 Symmetry not used in FoFCou.
 E= -305.876768110359    
 DIIS: error= 3.03D-03 at cycle   1 NSaved=   1.
 NSaved= 1 IEnMin= 1 EnMin= -305.876768110359     IErMin= 1 ErrMin= 3.03D-03
 ErrMax= 3.03D-03  0.00D+00 EMaxC= 1.00D-01 BMatC= 2.29D-02 BMatP= 2.29D-02
 IDIUse=3 WtCom= 9.70D-01 WtEn= 3.03D-02
 Coeff-Com:  0.100D+01
 Coeff-En:   0.100D+01
 Coeff:      0.100D+01
 Gap=     0.804 Goal=   None    Shift=    0.000
 Gap=     0.836 Goal=   None    Shift=    0.000
 GapD=    0.804 DampG=2.000 DampE=1.000 DampFc=2.0000 IDamp=-1.
 RMSDP=3.01D-04 MaxDP=8.63D-03              OVMax= 2.02D-02

 Cycle   2  Pass 1  IDiag  1:
 RMSU=  3.01D-04    CP:  1.00D+00
 E= -305.883468638053     Delta-E=       -0.006700527694 Rises=F Damp=F
 DIIS: error= 7.94D-04 at cycle   2 NSaved=   2.
 NSaved= 2 IEnMin= 2 EnMin= -305.883468638053     IErMin= 2 ErrMin= 7.94D-04
 ErrMax= 7.94D-04  0.00D+00 EMaxC= 1.00D-01 BMatC= 9.43D-04 BMatP= 2.29D-02
 IDIUse=3 WtCom= 9.92D-01 WtEn= 7.94D-03
 Coeff-Com: -0.609D-01 0.106D+01
 Coeff-En:   0.000D+00 0.100D+01
 Coeff:     -0.604D-01 0.106D+01
 Gap=     0.351 Goal=   None    Shift=    0.000
 Gap=     0.259 Goal=   None    Shift=    0.000
 RMSDP=9.29D-05 MaxDP=2.80D-03 DE=-6.70D-03 OVMax= 1.03D-02

 Cycle   3  Pass 1  IDiag  1:
 RMSU=  6.89D-05    CP:  9.99D-01  1.21D+00
 E= -305.883799839069     Delta-E=       -0.000331201016 Rises=F Damp=F
 DIIS: error= 8.84D-04 at cycle   3 NSaved=   3.
 NSaved= 3 IEnMin= 3 EnMin= -305.883799839069     IErMin= 2 ErrMin= 7.94D-04
 ErrMax= 8.84D-04  0.00D+00 EMaxC= 1.00D-01 BMatC= 7.28D-04 BMatP= 9.43D-04
 IDIUse=3 WtCom= 9.91D-01 WtEn= 8.84D-03
 Coeff-Com: -0.617D-01 0.514D+00 0.547D+00
 Coeff-En:   0.000D+00 0.000D+00 0.100D+01
 Coeff:     -0.611D-01 0.510D+00 0.551D+00
 Gap=     0.351 Goal=   None    Shift=    0.000
 Gap=     0.262 Goal=   None    Shift=    0.000
 RMSDP=3.63D-05 MaxDP=1.44D-03 DE=-3.31D-04 OVMax= 3.99D-03

 Cycle   4  Pass 1  IDiag  1:
 RMSU=  3.19D-05    CP:  9.99D-01  1.24D+00  8.08D-01
 E= -305.883930937900     Delta-E=       -0.000131098831 Rises=F Damp=F
 DIIS: error= 1.91D-04 at cycle   4 NSaved=   4.
 NSaved= 4 IEnMin= 4 EnMin= -305.883930937900     IErMin= 4 ErrMin= 1.91D-04
 ErrMax= 1.91D-04  0.00D+00 EMaxC= 1.00D-01 BMatC= 8.23D-05 BMatP= 7.28D-04
 IDIUse=3 WtCom= 9.98D-01 WtEn= 1.91D-03
 Coeff-Com: -0.117D-01-0.247D-01 0.225D+00 0.812D+00
 Coeff-En:   0.000D+00 0.000D+00 0.000D+00 0.100D+01
 Coeff:     -0.117D-01-0.247D-01 0.224D+00 0.812D+00
[...]
 Alpha virt. eigenvalues --    3.89264   3.92192   3.94091   3.95859   3.97063
 Alpha virt. eigenvalues --    3.99313   4.02694   4.04797   4.06526   4.07857
 Alpha virt. eigenvalues --    4.13544   4.14067   4.16776   4.21402   4.23771
 Alpha virt. eigenvalues --    4.24573   4.27387   4.32642   4.35986   4.41527
 Alpha virt. eigenvalues --    4.44029   4.44804   4.45536   4.61845   4.68256
 Alpha virt. eigenvalues --    4.70158   4.74945   4.75788   4.79947   4.83100
 Alpha virt. eigenvalues --    4.86131   4.86938   4.92050   4.94262   4.99210
 Alpha virt. eigenvalues --    5.01157   5.06306   5.09203   5.10959   5.12890
 Alpha virt. eigenvalues --    5.15798   5.23589   5.25583   5.32367   5.35994
 Alpha virt. eigenvalues --    5.40581   5.44527   5.55836   5.58536   5.70879
 Alpha virt. eigenvalues --    5.72789   5.78072   5.81955   5.94571   5.96746
 Alpha virt. eigenvalues --    6.11102   6.17099   6.18136   6.33197   6.35381
 Alpha virt. eigenvalues --    6.37942   6.47045   6.47838   6.54710   6.57351
 Alpha virt. eigenvalues --    6.60913   6.64095   6.66275   6.69077   6.70039
 Alpha virt. eigenvalues --    6.72715   6.83820   6.85914   6.88336   6.94977
 Alpha virt. eigenvalues --    7.11918   7.14227   7.20447   7.37399   7.43163
 Alpha virt. eigenvalues --    7.59048   9.88395  11.17246  11.80617  12.12580
 Alpha virt. eigenvalues --   12.80796
  Beta  occ. eigenvalues --  -19.68663 -19.67765 -19.62818 -10.59845 -10.55431
  Beta  occ. eigenvalues --   -1.25334  -1.15516  -0.96870  -0.84793  -0.71474
  Beta  occ. eigenvalues --   -0.61376  -0.58828  -0.54800  -0.53085  -0.51956
  Beta  occ. eigenvalues --   -0.50359  -0.45674  -0.41657  -0.37600  -0.36292
  Beta  occ. eigenvalues --   -0.35348
  Beta virt. eigenvalues --   -0.07759   0.05384   0.06576   0.09522   0.11976
  Beta virt. eigenvalues --    0.12754   0.14242   0.15535   0.20027   0.23010
  Beta virt. eigenvalues --    0.24315   0.30189   0.30537   0.35250   0.38103
  Beta virt. eigenvalues --    0.40791   0.43413   0.43878   0.46326   0.47437
  Beta virt. eigenvalues --    0.49212   0.49427   0.50773   0.51380   0.55492
  Beta virt. eigenvalues --    0.55899   0.57761   0.60140   0.61001   0.63974
  Beta virt. eigenvalues --    0.66637   0.68919   0.70927   0.72023   0.73267
  Beta virt. eigenvalues --    0.76359   0.76720   0.81366   0.83359   0.86901
  Beta virt. eigenvalues --    0.88580   0.91492   0.94348   0.98515   0.99517
  Beta virt. eigenvalues --    1.02329   1.06982   1.09380   1.11343   1.12861
  Beta virt. eigenvalues --    1.13230   1.16185   1.16618   1.19829   1.21681
  Beta virt. eigenvalues --    1.26890   1.28901   1.33091   1.34026   1.36191
  Beta virt. eigenvalues --    1.37416   1.42048   1.43353   1.44497   1.50127
  Beta virt. eigenvalues --    1.53765   1.55633   1.58134   1.59897   1.61137
  Beta virt. eigenvalues --    1.74433   1.77127   1.87496   1.92053   1.93854
  Beta virt. eigenvalues --    1.97815   1.99167   2.02252   2.07551   2.10641
  Beta virt. eigenvalues --    2.15699   2.17581   2.19911   2.28494   2.32717
  Beta virt. eigenvalues --    2.34991   2.38970   2.40357   2.42864   2.52740
  Beta virt. eigenvalues --    2.55238   2.57029   2.62797   2.65021   2.71719
  Beta virt. eigenvalues --    2.73706   2.82323   2.85052   2.85748   2.89784
  Beta virt. eigenvalues --    2.93860   2.94948   2.96302   2.97651   3.00356
  Beta virt. eigenvalues --    3.05662   3.06819   3.08958   3.11305   3.14668
  Beta virt. eigenvalues --    3.18004   3.21046   3.23046   3.23645   3.26907
  Beta virt. eigenvalues --    3.29267   3.30921   3.33140   3.38995   3.40037
  Beta virt. eigenvalues --    3.41854   3.44582   3.45061   3.46052   3.48925
  Beta virt. eigenvalues --    3.50514   3.55142   3.57069   3.62251   3.63815
  Beta virt. eigenvalues --    3.66763   3.69725   3.71778   3.73728   3.76868
  Beta virt. eigenvalues --    3.79548   3.80563   3.81443   3.83141   3.86124
  Beta virt. eigenvalues --    3.88342   3.89492   3.92527   3.94232   3.96134
  Beta virt. eigenvalues --    3.97478   3.99418   4.03572   4.05364   4.06813
  Beta virt. eigenvalues --    4.08371   4.13821   4.14336   4.17211   4.21739
  Beta virt. eigenvalues --    4.24720   4.25629   4.28028   4.33917   4.36393
  Beta virt. eigenvalues --    4.42015   4.44807   4.45993   4.47173   4.62420
  Beta virt. eigenvalues --    4.68659   4.70852   4.75842   4.76649   4.80785
  Beta virt. eigenvalues --    4.83916   4.87140   4.87975   4.93174   4.95073
  Beta virt. eigenvalues --    5.00205   5.02157   5.06831   5.09712   5.11888
  Beta virt. eigenvalues --    5.13626   5.17264   5.24474   5.27836   5.34166
  Beta virt. eigenvalues --    5.37018   5.41741   5.48229   5.55969   5.59020
  Beta virt. eigenvalues --    5.72909   5.74288   5.80070   5.82497   5.94900
  Beta virt. eigenvalues --    5.97192   6.12412   6.18092   6.18535   6.33700
  Beta virt. eigenvalues --    6.36014   6.38108   6.47115   6.48708   6.56118
  Beta virt. eigenvalues --    6.59028   6.62360   6.64126   6.67131   6.69209
  Beta virt. eigenvalues --    6.71000   6.72759   6.84182   6.86679   6.89298
  Beta virt. eigenvalues --    6.95044   7.11955   7.14322   7.21353   7.37431
  Beta virt. eigenvalues --    7.43488   7.59257   9.89164  11.17407  11.80667
  Beta virt. eigenvalues --   12.13632  12.81769
          Condensed to atoms (all electrons):
               1          2          3          4          5          6
     1  O    7.859747  -0.000028  -0.000168   0.326983  -0.057748  -0.032824
     2  O   -0.000028   7.895994   0.057599   0.001669   0.002483  -0.000050
     3  O   -0.000168   0.057599   8.086946  -0.000066  -0.082813   0.002425
     4  C    0.326983   0.001669  -0.000066   4.728912   0.286846   0.391808
     5  C   -0.057748   0.002483  -0.082813   0.286846   5.384429  -0.040847
     6  H   -0.032824  -0.000050   0.002425   0.391808  -0.040847   0.619407
     7  H   -0.046321  -0.000069  -0.000254   0.402850  -0.058530  -0.066024
     8  H    0.009687  -0.030226   0.193524  -0.010884   0.206845  -0.010667
     9  H   -0.004357   0.005289  -0.000436  -0.026856   0.367856   0.008697
    10  H    0.005326   0.001130  -0.003323  -0.025144   0.359466  -0.004085
    11  H    0.320101  -0.000024  -0.000005  -0.040440  -0.006778   0.010246
    12  H   -0.000026   0.312257  -0.033378  -0.000170  -0.001185   0.000044
               7          8          9         10         11         12
     1  O   -0.046321   0.009687  -0.004357   0.005326   0.320101  -0.000026
     2  O   -0.000069  -0.030226   0.005289   0.001130  -0.000024   0.312257
     3  O   -0.000254   0.193524  -0.000436  -0.003323  -0.000005  -0.033378
     4  C    0.402850  -0.010884  -0.026856  -0.025144  -0.040440  -0.000170
     5  C   -0.058530   0.206845   0.367856   0.359466  -0.006778  -0.001185
     6  H   -0.066024  -0.010667   0.008697  -0.004085   0.010246   0.000044
     7  H    0.682624   0.006573  -0.010165   0.002894  -0.009936  -0.000008
     8  H    0.006573   0.426692  -0.025296   0.002914  -0.001012  -0.004131
     9  H   -0.010165  -0.025296   0.584480  -0.034700   0.005554   0.001475
    10  H    0.002894   0.002914  -0.034700   0.546131  -0.000088  -0.000353
    11  H   -0.009936  -0.001012   0.005554  -0.000088   0.480132  -0.000000
    12  H   -0.000008  -0.004131   0.001475  -0.000353  -0.000000   0.458255
          Atomic-Atomic Spin Densities.
               1          2          3          4          5          6
     1  O   -0.001603   0.000001  -0.000032   0.004232   0.000418   0.001246
     2  O    0.000001   0.054013  -0.040167  -0.000343   0.016770  -0.000073
     3  O   -0.000032  -0.040167   0.552697   0.003811  -0.108148   0.001680
     4  C    0.004232  -0.000343   0.003811  -0.039649  -0.026768   0.002262
     5  C    0.000418   0.016770  -0.108148  -0.026768   0.748267  -0.007799
     6  H    0.001246  -0.000073   0.001680   0.002262  -0.007799   0.024475
     7  H   -0.002462   0.000054  -0.000623   0.018051  -0.023421  -0.010344
     8  H   -0.000372   0.008691  -0.035080   0.001192   0.062783  -0.001254
     9  H    0.000339  -0.002274   0.005127   0.002890  -0.006002   0.000602
    10  H   -0.000136  -0.000913   0.003028   0.002854  -0.006225   0.000956
    11  H   -0.000035   0.000003   0.000008   0.000327  -0.000322   0.000197
    12  H    0.000001   0.001031  -0.001074  -0.000013   0.000065  -0.000006
               7          8          9         10         11         12
     1  O   -0.002462  -0.000372   0.000339  -0.000136  -0.000035   0.000001
     2  O    0.000054   0.008691  -0.002274  -0.000913   0.000003   0.001031
     3  O   -0.000623  -0.035080   0.005127   0.003028   0.000008  -0.001074
     4  C    0.018051   0.001192   0.002890   0.002854   0.000327  -0.000013
     5  C   -0.023421   0.062783  -0.006002  -0.006225  -0.000322   0.000065
     6  H   -0.010344  -0.001254   0.000602   0.000956   0.000197  -0.000006
     7  H    0.062167   0.000582  -0.002439  -0.001207  -0.000606   0.000003
     8  H    0.000582  -0.062639   0.000871  -0.000421  -0.000111   0.000607
     9  H   -0.002439   0.000871  -0.031405   0.004351   0.000031  -0.000184
    10  H   -0.001207  -0.000421   0.004351  -0.037011   0.000018   0.000010
    11  H   -0.000606  -0.000111   0.000031   0.000018   0.000555   0.000000
    12  H    0.000003   0.000607  -0.000184   0.000010   0.000000  -0.002343
 Mulliken charges and spin densities:
               1          2
     1  O   -0.380372   0.001599
     2  O   -0.246024   0.036793
     3  O   -0.220052   0.381227
     4  C   -0.035510  -0.031153
     5  C   -0.360024   0.649617
     6  H    0.121871   0.011940
     7  H    0.096366   0.039756
     8  H    0.235981  -0.025151
     9  H    0.128459  -0.028094
    10  H    0.149832  -0.034695
    11  H    0.242251   0.000065
    12  H    0.267221  -0.001904
 Sum of Mulliken charges =  -0.00000   1.00000
 Mulliken charges and spin densities with hydrogens summed into heavy atoms:
               1          2
     1  O   -0.138121   0.001664
     2  O    0.021197   0.034889
     3  O    0.015929   0.356077
     4  C    0.182727   0.020542
     5  C   -0.081732   0.586828
 Electronic spatial extent (au):  <R**2>=            693.1041
 Charge=             -0.0000 electrons
 Dipole moment (field-independent basis, Debye):
    X=             -0.8660    Y=              0.7927    Z=              2.5213  Tot=              2.7813
 Quadrupole moment (field-independent basis, Debye-Ang):
   XX=            -33.7464   YY=            -31.8091   ZZ=            -27.4781
   XY=             -5.4973   XZ=              1.7328   YZ=             -2.8957
 Traceless Quadrupole moment (field-independent basis, Debye-Ang):
   XX=             -2.7352   YY=             -0.7979   ZZ=              3.5331
   XY=             -5.4973   XZ=              1.7328   YZ=             -2.8957
 Octapole moment (field-independent basis, Debye-Ang**2):
  XXX=             13.2945  YYY=             -2.7261  ZZZ=              5.6830  XYY=              6.2831
  XXY=             -4.1258  XXZ=             16.5514  XZZ=             -1.3310  YZZ=             -4.5851
  YYZ=              1.5464  XYZ=             -1.7605
 Hexadecapole moment (field-independent basis, Debye-Ang**3):
 XXXX=           -648.8073 YYYY=           -106.0631 ZZZZ=            -63.5001 XXXY=            -37.3804
 XXXZ=              9.7979 YYYX=             -0.3403 YYYZ=             -4.6032 ZZZX=             -1.3795
 ZZZY=             -4.1701 XXYY=           -123.1931 XXZZ=            -95.6414 YYZZ=            -27.9699
 XXYZ=            -16.3890 YYXZ=             -0.0803 ZZXY=              2.5160
 N-N= 1.817148580171D+02 E-N=-1.082782112445D+03  KE= 3.043507225336D+02
                          Isotropic Fermi Contact Couplings
        Atom                 a.u.       MegaHertz       Gauss      10(-4) cm-1
     1  O(17)              0.00061      -0.36840      -0.13146      -0.12289
     2  O(17)              0.00160      -0.96948      -0.34593      -0.32338
     3  O(17)              0.10353     -62.75975     -22.39424     -20.93440
     4  C(13)             -0.01604     -18.03045      -6.43371      -6.01431
     5  C(13)              0.18405     206.90655      73.82940      69.01660
     6  H(1)               0.00655      29.27262      10.44520       9.76429
     7  H(1)               0.02052      91.70161      32.72142      30.58837
     8  H(1)              -0.03263    -145.83966     -52.03922     -48.64687
     9  H(1)              -0.00430     -19.21358      -6.85588      -6.40896
    10  H(1)              -0.00906     -40.50937     -14.45475     -13.51247
    11  H(1)              -0.00008      -0.36975      -0.13194      -0.12334
    12  H(1)              -0.00080      -3.57193      -1.27455      -1.19147
 --------------------------------------------------------
       Center         ----  Spin Dipole Couplings  ----
                      3XX-RR        3YY-RR        3ZZ-RR
 --------------------------------------------------------
     1   Atom       -0.007419      0.014805     -0.007386
     2   Atom        0.209857     -0.113895     -0.095962
     3   Atom        0.797790     -0.468675     -0.329115
     4   Atom        0.032207     -0.016086     -0.016122
     5   Atom        0.035749      0.189014     -0.224763
     6   Atom        0.002568     -0.007317      0.004749
     7   Atom        0.008464      0.000038     -0.008503
     8   Atom        0.116931     -0.033406     -0.083525
     9   Atom       -0.026925     -0.023887      0.050812
    10   Atom       -0.012814      0.038863     -0.026049
    11   Atom        0.003442     -0.000427     -0.003015
    12   Atom        0.000930     -0.007011      0.006082
 --------------------------------------------------------
                        XY            XZ            YZ
 --------------------------------------------------------
     1   Atom        0.007125     -0.000842     -0.005820
     2   Atom       -0.130794     -0.175384      0.010215
     3   Atom       -0.921600     -1.037288      0.561283
     4   Atom       -0.007361     -0.006874      0.003038
     5   Atom       -0.463408     -0.229798      0.267147
     6   Atom        0.001207      0.010918      0.003010
     7   Atom       -0.005647      0.002463      0.001418
     8   Atom       -0.117311     -0.092333      0.049065
     9   Atom       -0.020352      0.006516     -0.001746
    10   Atom        0.013830     -0.024097     -0.021126
    11   Atom        0.004834     -0.004162     -0.003020
    12   Atom       -0.005551      0.009310     -0.010038
 --------------------------------------------------------


 ---------------------------------------------------------------------------------
              Anisotropic Spin Dipole Couplings in Principal Axis System
 ---------------------------------------------------------------------------------

       Atom             a.u.   MegaHertz   Gauss  10(-4) cm-1        Axes

              Baa    -0.0100     0.724     0.258     0.242  0.7838 -0.3460 -0.5157
     1 O(17)  Bbb    -0.0082     0.594     0.212     0.198  0.5603  0.0358  0.8275
              Bcc     0.0182    -1.318    -0.470    -0.440  0.2679  0.9375 -0.2219
 
              Baa    -0.2076    15.022     5.360     5.011  0.4635  0.5733  0.6757
     2 O(17)  Bbb    -0.1170     8.467     3.021     2.824 -0.0311  0.7726 -0.6342
              Bcc     0.3246   -23.489    -8.381    -7.835  0.8856 -0.2729 -0.3759
 
              Baa    -0.9648    69.809    24.910    23.286  0.0646  0.7980 -0.5992
     3 O(17)  Bbb    -0.9405    68.052    24.283    22.700  0.6204  0.4381  0.6505
              Bcc     1.9052  -137.861   -49.192   -45.986  0.7816 -0.4138 -0.4668
 
              Baa    -0.0191    -2.569    -0.917    -0.857  0.0091  0.7156 -0.6985
     4 C(13)  Bbb    -0.0152    -2.040    -0.728    -0.680  0.2076  0.6820  0.7013
              Bcc     0.0343     4.609     1.645     1.537  0.9782 -0.1513 -0.1423
 
              Baa    -0.3594   -48.234   -17.211   -16.089  0.7129  0.2917  0.6377
     5 C(13)  Bbb    -0.3549   -47.619   -16.992   -15.884 -0.3525 -0.6371  0.6855
              Bcc     0.7143    95.853    34.203    31.973 -0.6062  0.7135  0.3513
 
              Baa    -0.0087    -4.619    -1.648    -1.541  0.4070  0.7627 -0.5027
     6 H(1)   Bbb    -0.0064    -3.409    -1.216    -1.137 -0.6317  0.6325  0.4483
              Bcc     0.0150     8.028     2.864     2.678  0.6598  0.1351  0.7392
 
              Baa    -0.0095    -5.050    -1.802    -1.684 -0.2132 -0.2670  0.9398
     7 H(1)   Bbb    -0.0020    -1.045    -0.373    -0.348  0.3874  0.8600  0.3322
              Bcc     0.0114     6.094     2.175     2.033  0.8969 -0.4350  0.0799
 
              Baa    -0.1199   -63.979   -22.829   -21.341  0.3129 -0.1106  0.9433
     8 H(1)   Bbb    -0.0975   -52.023   -18.563   -17.353  0.4628  0.8851 -0.0497
              Bcc     0.2174   116.002    41.392    38.694  0.8294 -0.4521 -0.3282
 
              Baa    -0.0459   -24.516    -8.748    -8.178  0.7360  0.6760 -0.0374
     9 H(1)   Bbb    -0.0056    -2.973    -1.061    -0.992 -0.6703  0.7353  0.1002
              Bcc     0.0515    27.490     9.809     9.170  0.0952 -0.0487  0.9943
 
              Baa    -0.0454   -24.217    -8.641    -8.078  0.5590  0.1142  0.8212
    10 H(1)   Bbb    -0.0065    -3.444    -1.229    -1.149  0.7667 -0.4482 -0.4596
              Bcc     0.0518    27.661     9.870     9.227  0.3156  0.8866 -0.3381
 
              Baa    -0.0052    -2.797    -0.998    -0.933  0.2696  0.3027  0.9142
    11 H(1)   Bbb    -0.0037    -1.965    -0.701    -0.656 -0.5943  0.7992 -0.0893
              Bcc     0.0089     4.763     1.699     1.589  0.7577  0.5192 -0.3954
 
              Baa    -0.0125    -6.655    -2.375    -2.220  0.0524  0.8891  0.4547
    12 H(1)   Bbb    -0.0058    -3.099    -1.106    -1.034  0.8466  0.2019 -0.4924
              Bcc     0.0183     9.754     3.481     3.254  0.5296 -0.4108  0.7421
 

 ---------------------------------------------------------------------------------

 No NMR shielding tensors so no spin-rotation constants.
 Leave Link  601 at Sat Jun 22 13:02:42 2019, MaxMem=   671088640 cpu:              39.4 elap:               2.1
 (Enter /shared/centos7/gaussian/g16/l9999.exe)
 1\1\GINC-C0230\FOpt\UM062X\CC-pVTZ\C2H7O3(2)\HARMS.N\22-Jun-2019\0\\#p
  m062x/cc-pVTZ Opt=(ModRedun,Loose,maxcycles=900) Int(Grid=SG1) scf=(m
 axcycle=900)\\Gaussian input prepared by ASE\\0,2\O,-2.3868470738,1.21
 05038467,0.6198174928\O,-0.6104376019,-2.299225843,3.2838669978\O,-1.7
 345669194,-2.1267277847,2.4834553217\C,-1.5591528949,0.2317476046,0.02
 7337536\C,-0.6938488827,-0.4867112082,1.0167600272\H,-2.226635226,-0.4
 697358473,-0.4741469136\H,-0.9266467416,0.6759570987,-0.7557141145\H,-
 1.5174528205,-1.1508949797,1.8850730823\H,-0.140620716,0.1463245965,1.
 7106842167\H,-0.095377469,-1.3005562588,0.6209541453\H,-1.8310207384,1
 .85816463,1.0606353294\H,-0.8589978775,-1.860093171,4.1063963937\\Vers
 ion=EM64L-G16RevA.03\State=2-A\HF=-305.8902011\S2=0.760204\S2-1=0.\S2A
 =0.75005\RMSD=9.112e-09\RMSF=2.532e-03\Dipole=0.7117022,0.8171042,0.15
 22163\Quadrupole=-2.7589566,-1.9414138,4.7003703,2.7724813,-0.7487459,
 1.925705\PG=C01 [X(C2H7O3)]\\@


 OLD HORSE! OLD HORSE! WHAT BROUGHT YOU HERE?
 FROM SACARAP' TO PORTLAND PIER
 I'VE CARTED STONE THIS MANY A YEAR;
 TILL, KILLED BY BLOWS AND SORE ABUSE,
 THEY SALTED ME DOWN FOR SAILORS' USE.
 THE SAILORS THEY DO ME DESPISE;
 THEY TURN ME OVER AND DAMN MY EYES;
 CUT OFF MY MEAT, AND SCRAPE MY BONES,
 AND PITCH ME OVER TO DAVY JONES.

    SAILORS' COMPLAINT ABOUT THE BEEF
    SERVED ON SHIPBOARD, CIRCA 1835.
 Job cpu time:       0 days  9 hours  2 minutes 46.9 seconds.
 Elapsed time:       0 days  0 hours 27 minutes 34.2 seconds.
 File lengths (MBytes):  RWF=    304 Int=      0 D2E=      0 Chk=     32 Scr=     32
 Normal termination of Gaussian 16 at Sat Jun 22 13:02:43 2019.
