 Entering Gaussian System, Link 0=g16
 Input=/scratch/harms.n/autotst-2.0-QMScratch/species/[CH2]CO/rotors/[CH2]CO_36by10_0_1.com
 Output=/scratch/harms.n/autotst-2.0-QMScratch/species/[CH2]CO/rotors/[CH2]CO_36by10_0_1.log
 Initial command:
 /shared/centos7/gaussian/g16/l1.exe "/scratch/harms.n/gauss_scrdir/Gau-39321.inp" -scrdir="/scratch/harms.n/gauss_scrdir/"
 Entering Link 1 = /shared/centos7/gaussian/g16/l1.exe PID=     39322.
  
 Copyright (c) 1988,1990,1992,1993,1995,1998,2003,2009,2016,
            Gaussian, Inc.  All Rights Reserved.
  
 This is part of the Gaussian(R) 16 program.  It is based on
 the Gaussian(R) 09 system (copyright 2009, Gaussian, Inc.),
 the Gaussian(R) 03 system (copyright 2003, Gaussian, Inc.),
 the Gaussian(R) 98 system (copyright 1998, Gaussian, Inc.),
 the Gaussian(R) 94 system (copyright 1995, Gaussian, Inc.),
 the Gaussian 92(TM) system (copyright 1992, Gaussian, Inc.),
 the Gaussian 90(TM) system (copyright 1990, Gaussian, Inc.),
 the Gaussian 88(TM) system (copyright 1988, Gaussian, Inc.),
 the Gaussian 86(TM) system (copyright 1986, Carnegie Mellon
 University), and the Gaussian 82(TM) system (copyright 1983,
 Carnegie Mellon University). Gaussian is a federally registered
 trademark of Gaussian, Inc.
  
 This software contains proprietary and confidential information,
 including trade secrets, belonging to Gaussian, Inc.
  
 This software is provided under written license and may be
 used, copied, transmitted, or stored only in accord with that
 written license.
  
 The following legend is applicable only to US Government
 contracts under FAR:
  
                    RESTRICTED RIGHTS LEGEND
  
 Use, reproduction and disclosure by the US Government is
 subject to restrictions as set forth in subparagraphs (a)
 and (c) of the Commercial Computer Software - Restricted
 Rights clause in FAR 52.227-19.
  
 Gaussian, Inc.
 340 Quinnipiac St., Bldg. 40, Wallingford CT 06492
  
  
 ---------------------------------------------------------------
 Warning -- This program may not be used in any manner that
 competes with the business of Gaussian, Inc. or will provide
 assistance to any competitor of Gaussian, Inc.  The licensee
 of this program is prohibited from giving any competitor of
 Gaussian, Inc. access to this program.  By using this program,
 the user acknowledges that Gaussian, Inc. is engaged in the
 business of creating and licensing software in the field of
 computational chemistry and represents and warrants to the
 licensee that it is not a competitor of Gaussian, Inc. and that
 it will not use this program in any manner prohibited above.
 ---------------------------------------------------------------
  

 Cite this work as:
 Gaussian 16, Revision A.03,
 M. J. Frisch, G. W. Trucks, H. B. Schlegel, G. E. Scuseria, 
 M. A. Robb, J. R. Cheeseman, G. Scalmani, V. Barone, 
 G. A. Petersson, H. Nakatsuji, X. Li, M. Caricato, A. V. Marenich, 
 J. Bloino, B. G. Janesko, R. Gomperts, B. Mennucci, H. P. Hratchian, 
 J. V. Ortiz, A. F. Izmaylov, J. L. Sonnenberg, D. Williams-Young, 
 F. Ding, F. Lipparini, F. Egidi, J. Goings, B. Peng, A. Petrone, 
 T. Henderson, D. Ranasinghe, V. G. Zakrzewski, J. Gao, N. Rega, 
 G. Zheng, W. Liang, M. Hada, M. Ehara, K. Toyota, R. Fukuda, 
 J. Hasegawa, M. Ishida, T. Nakajima, Y. Honda, O. Kitao, H. Nakai, 
 T. Vreven, K. Throssell, J. A. Montgomery, Jr., J. E. Peralta, 
 F. Ogliaro, M. J. Bearpark, J. J. Heyd, E. N. Brothers, K. N. Kudin, 
 V. N. Staroverov, T. A. Keith, R. Kobayashi, J. Normand, 
 K. Raghavachari, A. P. Rendell, J. C. Burant, S. S. Iyengar, 
 J. Tomasi, M. Cossi, J. M. Millam, M. Klene, C. Adamo, R. Cammi, 
 J. W. Ochterski, R. L. Martin, K. Morokuma, O. Farkas, 
 J. B. Foresman, and D. J. Fox, Gaussian, Inc., Wallingford CT, 2016.
 
 ******************************************
 Gaussian 16:  EM64L-G16RevA.03 25-Dec-2016
                28-Aug-2019 
 ******************************************
 %nprocshared=20
 Will use up to   20 processors via shared memory.
 %mem=5GB
 --------------------------------------
 #p m062x/cc-pVTZ Opt=(CalcFC,ModRedun)
 --------------------------------------
 1/10=4,18=120,19=15,26=3,38=1/1,3;
 2/9=110,12=2,17=6,18=5,40=1/2;
 3/5=16,6=1,11=2,25=1,30=1,71=2,74=-55,140=1/1,2,3;
 4//1;
 5/5=2,38=5/2;
 8/6=4,10=90,11=11/1;
 11/6=1,8=1,9=11,15=111,16=1/1,2,10;
 10/6=1,13=1/2;
 6/7=2,8=2,9=2,10=2,28=1/1;
 7/10=1,18=20,25=1/1,2,3,16;
 1/10=4,18=20,19=15,26=3/3(2);
 2/9=110/2;
 99//99;
 2/9=110/2;
 3/5=16,6=1,11=2,25=1,30=1,71=1,74=-55/1,2,3;
 4/5=5,16=3,69=1/1;
 5/5=2,38=5/2;
 7//1,2,3,16;
 1/18=20,19=15,26=3/3(-5);
 2/9=110/2;
 6/7=2,8=2,9=2,10=2,19=2,28=1/1;
 99/9=1/99;
 Leave Link    1 at Wed Aug 28 08:00:02 2019, MaxMem=   671088640 cpu:              12.5 elap:               1.6
 (Enter /shared/centos7/gaussian/g16/l101.exe)
 ------------------------------
 Gaussian input prepared by ASE
 ------------------------------
 Symbolic Z-matrix:
 Charge =  0 Multiplicity = 2
 O                    -1.2475   -0.17622   0.93679 
 C                    -0.20607  -0.51021   0.03723 
 C                     0.34766  -1.82624   0.41836 
 H                    -0.57139  -0.54169  -0.99791 
 H                     0.58411   0.25762   0.06522 
 H                     1.00409  -2.35629  -0.2529 
 H                     0.21991  -2.17553   1.43061 
 H                    -1.54987   0.71306   0.74349 
 
 The following ModRedundant input section has been read:
 B       1       2 B                                                           
 B       1       8 B                                                           
 B       2       4 B                                                           
 B       2       3 B                                                           
 B       2       5 B                                                           
 B       3       6 B                                                           
 B       3       7 B                                                           
 D       8       1       2       5 S  36 10.000                                
 D       5       2       3       7 F                                           
 
 ITRead=  0  0  0  0  0  0  0  0
 MicOpt= -1 -1 -1 -1 -1 -1 -1 -1
 NAtoms=      8 NQM=        8 NQMF=       0 NMMI=      0 NMMIF=      0
                NMic=       0 NMicF=      0.
                    Isotopes and Nuclear Properties:
 (Nuclear quadrupole moments (NQMom) in fm**2, nuclear magnetic moments (NMagM)
  in nuclear magnetons)

  Atom         1           2           3           4           5           6           7           8
 IAtWgt=          16          12          12           1           1           1           1           1
 AtmWgt=  15.9949146  12.0000000  12.0000000   1.0078250   1.0078250   1.0078250   1.0078250   1.0078250
 NucSpn=           0           0           0           1           1           1           1           1
 AtZEff=  -0.0000000  -0.0000000  -0.0000000  -0.0000000  -0.0000000  -0.0000000  -0.0000000  -0.0000000
 NQMom=    0.0000000   0.0000000   0.0000000   0.0000000   0.0000000   0.0000000   0.0000000   0.0000000
 NMagM=    0.0000000   0.0000000   0.0000000   2.7928460   2.7928460   2.7928460   2.7928460   2.7928460
 AtZNuc=   8.0000000   6.0000000   6.0000000   1.0000000   1.0000000   1.0000000   1.0000000   1.0000000
 Leave Link  101 at Wed Aug 28 08:00:03 2019, MaxMem=   671088640 cpu:               7.9 elap:               1.0
 (Enter /shared/centos7/gaussian/g16/l103.exe)

 GradGradGradGradGradGradGradGradGradGradGradGradGradGradGradGradGradGrad
 Berny optimization.
 Initialization pass.
                           ----------------------------
                           !    Initial Parameters    !
                           ! (Angstroms and Degrees)  !
 --------------------------                            --------------------------
 ! Name  Definition              Value          Derivative Info.                !
 --------------------------------------------------------------------------------
 ! R1    R(1,2)                  1.4161         calculate D2E/DX2 analytically  !
 ! R2    R(1,8)                  0.959          calculate D2E/DX2 analytically  !
 ! R3    R(2,3)                  1.4778         calculate D2E/DX2 analytically  !
 ! R4    R(2,4)                  1.0982         calculate D2E/DX2 analytically  !
 ! R5    R(2,5)                  1.1021         calculate D2E/DX2 analytically  !
 ! R6    R(3,6)                  1.0782         calculate D2E/DX2 analytically  !
 ! R7    R(3,7)                  1.0784         calculate D2E/DX2 analytically  !
 ! A1    A(2,1,8)              108.8172         calculate D2E/DX2 analytically  !
 ! A2    A(1,2,3)              108.7701         calculate D2E/DX2 analytically  !
 ! A3    A(1,2,4)              111.1549         calculate D2E/DX2 analytically  !
 ! A4    A(1,2,5)              110.2923         calculate D2E/DX2 analytically  !
 ! A5    A(3,2,4)              110.0131         calculate D2E/DX2 analytically  !
 ! A6    A(3,2,5)              110.1955         calculate D2E/DX2 analytically  !
 ! A7    A(4,2,5)              106.4043         calculate D2E/DX2 analytically  !
 ! A8    A(2,3,6)              120.3565         calculate D2E/DX2 analytically  !
 ! A9    A(2,3,7)              119.0875         calculate D2E/DX2 analytically  !
 ! A10   A(6,3,7)              119.8204         calculate D2E/DX2 analytically  !
 ! D1    D(8,1,2,3)            174.5661         calculate D2E/DX2 analytically  !
 ! D2    D(8,1,2,4)            -64.1629         calculate D2E/DX2 analytically  !
 ! D3    D(8,1,2,5)             53.6084         Scan                            !
 ! D4    D(1,2,3,6)            167.1614         calculate D2E/DX2 analytically  !
 ! D5    D(1,2,3,7)            -22.6807         calculate D2E/DX2 analytically  !
 ! D6    D(4,2,3,6)             45.1939         calculate D2E/DX2 analytically  !
 ! D7    D(4,2,3,7)           -144.6483         calculate D2E/DX2 analytically  !
 ! D8    D(5,2,3,6)            -71.8216         calculate D2E/DX2 analytically  !
 ! D9    D(5,2,3,7)             98.3363         frozen, calculate D2E/DX2 analyt!
 --------------------------------------------------------------------------------
 Trust Radius=3.00D-01 FncErr=1.00D-07 GrdErr=1.00D-06 EigMax=2.50D+02 EigMin=1.00D-04
 Number of optimizations in scan=  37
 Number of steps in this run=     36 maximum allowed number of steps=    100.
 GradGradGradGradGradGradGradGradGradGradGradGradGradGradGradGradGradGrad

 Leave Link  103 at Wed Aug 28 08:00:03 2019, MaxMem=   671088640 cpu:               1.9 elap:               0.5
 (Enter /shared/centos7/gaussian/g16/l202.exe)
                          Input orientation:                          
 ---------------------------------------------------------------------
 Center     Atomic      Atomic             Coordinates (Angstroms)
 Number     Number       Type             X           Y           Z
 ---------------------------------------------------------------------
      1          8           0       -1.247505   -0.176215    0.936792
      2          6           0       -0.206068   -0.510209    0.037228
      3          6           0        0.347662   -1.826235    0.418361
      4          1           0       -0.571390   -0.541688   -0.997908
      5          1           0        0.584106    0.257621    0.065220
      6          1           0        1.004089   -2.356292   -0.252900
      7          1           0        0.219913   -2.175527    1.430605
      8          1           0       -1.549868    0.713059    0.743490
 ---------------------------------------------------------------------
                    Distance matrix (angstroms):
                    1          2          3          4          5
     1  O    0.000000
     2  C    1.416107   0.000000
     3  C    2.352848   1.477770   0.000000
     4  H    2.081770   1.098161   2.121447   0.000000
     5  H    2.074283   1.102144   2.126752   1.761905   0.000000
     6  H    3.352279   2.226359   1.078169   2.515941   2.666483
     7  H    2.528718   2.212746   1.078407   3.032040   2.813738
     8  H    0.958957   1.949613   3.186588   2.358873   2.285020
                    6          7          8
     6  H    0.000000
     7  H    1.865957   0.000000
     8  H    4.115386   3.456614   0.000000
 Stoichiometry    C2H5O(2)
 Framework group  C1[X(C2H5O)]
 Deg. of freedom    18
 Full point group                 C1      NOp   1
 Largest Abelian subgroup         C1      NOp   1
 Largest concise Abelian subgroup C1      NOp   1
                         Standard orientation:                         
 ---------------------------------------------------------------------
 Center     Atomic      Atomic             Coordinates (Angstroms)
 Number     Number       Type             X           Y           Z
 ---------------------------------------------------------------------
      1          8           0       -1.102885   -0.376961   -0.048670
      2          6           0       -0.010592    0.520587    0.032935
      3          6           0        1.246612   -0.254075   -0.023110
      4          1           0       -0.037518    1.252997   -0.784871
      5          1           0       -0.059948    1.098514    0.970105
      6          1           0        2.188228    0.246202   -0.182891
      7          1           0        1.233289   -1.295917    0.255010
      8          1           0       -1.917090    0.114822    0.073058
 ---------------------------------------------------------------------
 Rotational constants (GHZ):          40.4270478          10.1280035           8.5714831
 Leave Link  202 at Wed Aug 28 08:00:04 2019, MaxMem=   671088640 cpu:               4.5 elap:               0.6
 (Enter /shared/centos7/gaussian/g16/l301.exe)
 Standard basis: CC-pVTZ (5D, 7F)
 Ernie: Thresh=  0.10000D-02 Tol=  0.10000D-05 Strict=F.
 Ernie:  9 primitive shells out of 118 were deleted.
 There are   180 symmetry adapted cartesian basis functions of A   symmetry.
 There are   160 symmetry adapted basis functions of A   symmetry.
   160 basis functions,   241 primitive gaussians,   180 cartesian basis functions
    13 alpha electrons       12 beta electrons
       nuclear repulsion energy        75.2794602409 Hartrees.
 IExCor= 4336 DFT=T Ex+Corr=M062X ExCW=0 ScaHFX=  0.540000
 ScaDFX=  1.000000  1.000000  1.000000  1.000000 ScalE2=  1.000000  1.000000
 IRadAn=      5 IRanWt=     -1 IRanGd=            0 ICorTp=0 IEmpDi=  4
 NAtoms=    8 NActive=    8 NUniq=    8 SFac= 1.00D+00 NAtFMM=   60 NAOKFM=F Big=F
 Integral buffers will be    131072 words long.
 Raffenetti 2 integral format.
 Two-electron integral symmetry is turned on.
 Leave Link  301 at Wed Aug 28 08:00:05 2019, MaxMem=   671088640 cpu:               4.3 elap:               0.7
 (Enter /shared/centos7/gaussian/g16/l302.exe)
 NPDir=0 NMtPBC=     1 NCelOv=     1 NCel=       1 NClECP=     1 NCelD=      1
         NCelK=      1 NCelE2=     1 NClLst=     1 CellRange=     0.0.
 One-electron integrals computed using PRISM.
 One-electron integral symmetry used in STVInt
 NBasis=   160 RedAO= T EigKep=  9.46D-04  NBF=   160
 NBsUse=   160 1.00D-06 EigRej= -1.00D+00 NBFU=   160
 Precomputing XC quadrature grid using
 IXCGrd= 4 IRadAn=           5 IRanWt=          -1 IRanGd=           0 AccXCQ= 0.00D+00.
 Generated NRdTot=       0 NPtTot=           0 NUsed=           0 NTot=          32
 NSgBfM=   180   180   180   180   180 MxSgAt=     8 MxSgA2=     8.
 Leave Link  302 at Wed Aug 28 08:00:13 2019, MaxMem=   671088640 cpu:              64.5 elap:               8.1
 (Enter /shared/centos7/gaussian/g16/l303.exe)
 DipDrv:  MaxL=1.
 Leave Link  303 at Wed Aug 28 08:00:14 2019, MaxMem=   671088640 cpu:               8.4 elap:               1.1
 (Enter /shared/centos7/gaussian/g16/l401.exe)
 ExpMin= 1.03D-01 ExpMax= 1.53D+04 ExpMxC= 5.22D+02 IAcc=3 IRadAn=         5 AccDes= 0.00D+00
 Harris functional with IExCor= 1009 and IRadAn=       5 diagonalized for initial guess.
 HarFok:  IExCor= 1009 AccDes= 0.00D+00 IRadAn=         5 IDoV= 1 UseB2=F ITyADJ=14
 ICtDFT=  3500011 ScaDFX=  1.000000  1.000000  1.000000  1.000000
 FoFCou: FMM=F IPFlag=           0 FMFlag=      100000 FMFlg1=           0
         NFxFlg=           0 DoJE=T BraDBF=F KetDBF=T FulRan=T
         wScrn=  0.000000 ICntrl=       500 IOpCl=  0 I1Cent=   200000004 NGrid=           0
         NMat0=    1 NMatS0=      1 NMatT0=    0 NMatD0=    1 NMtDS0=    0 NMtDT0=    0
 Petite list used in FoFCou.
 Harris En= -154.289405714371    
 JPrj=0 DoOrth=F DoCkMO=F.
 Initial guess <Sx>= 0.0000 <Sy>= 0.0000 <Sz>= 0.5000 <S**2>= 0.7500 S= 0.5000
 Leave Link  401 at Wed Aug 28 08:00:20 2019, MaxMem=   671088640 cpu:              44.2 elap:               5.6
 (Enter /shared/centos7/gaussian/g16/l502.exe)
 Keep R1 and R2 ints in memory in canonical form, NReq=186086596.
 FoFCou: FMM=F IPFlag=           0 FMFlag=           0 FMFlg1=           0
         NFxFlg=           0 DoJE=F BraDBF=F KetDBF=F FulRan=T
         wScrn=  0.000000 ICntrl=       600 IOpCl=  0 I1Cent=           0 NGrid=           0
         NMat0=    1 NMatS0=  12880 NMatT0=    0 NMatD0=    1 NMtDS0=    0 NMtDT0=    0
 Symmetry not used in FoFCou.
 Two-electron integral symmetry not used.
 UHF open shell SCF:
 Using DIIS extrapolation, IDIIS=  1040.
 NGot=   671088640 LenX=   505111240 LenY=   505078399
 Requested convergence on RMS density matrix=1.00D-08 within 128 cycles.
 Requested convergence on MAX density matrix=1.00D-06.
 Requested convergence on             energy=1.00D-06.
 No special actions if energy rises.
 Integral accuracy reduced to 1.0D-05 until final iterations.

 Cycle   1  Pass 0  IDiag  1:
 E= -154.244351550738    
 DIIS: error= 2.46D-02 at cycle   1 NSaved=   1.
 NSaved= 1 IEnMin= 1 EnMin= -154.244351550738     IErMin= 1 ErrMin= 2.46D-02
 ErrMax= 2.46D-02  0.00D+00 EMaxC= 1.00D-01 BMatC= 5.50D-01 BMatP= 5.50D-01
 IDIUse=3 WtCom= 7.54D-01 WtEn= 2.46D-01
 Coeff-Com:  0.100D+01
 Coeff-En:   0.100D+01
 Coeff:      0.100D+01
 Gap=     0.281 Goal=   None    Shift=    0.000
 Gap=     0.336 Goal=   None    Shift=    0.000
 GapD=    0.281 DampG=1.000 DampE=0.500 DampFc=0.5000 IDamp=-1.
 Damping current iteration by 5.00D-01
 RMSDP=3.13D-03 MaxDP=1.27D-01              OVMax= 1.42D-01

 Cycle   2  Pass 0  IDiag  1:
 E= -154.298171972207     Delta-E=       -0.053820421469 Rises=F Damp=T
 DIIS: error= 7.56D-03 at cycle   2 NSaved=   2.
 NSaved= 2 IEnMin= 2 EnMin= -154.298171972207     IErMin= 2 ErrMin= 7.56D-03
 ErrMax= 7.56D-03  0.00D+00 EMaxC= 1.00D-01 BMatC= 4.06D-02 BMatP= 5.50D-01
 IDIUse=3 WtCom= 9.24D-01 WtEn= 7.56D-02
 Coeff-Com: -0.459D-01 0.105D+01
 Coeff-En:   0.000D+00 0.100D+01
 Coeff:     -0.425D-01 0.104D+01
 Gap=     0.315 Goal=   None    Shift=    0.000
 Gap=     0.362 Goal=   None    Shift=    0.000
 RMSDP=6.08D-04 MaxDP=2.63D-02 DE=-5.38D-02 OVMax= 6.98D-02

 Cycle   3  Pass 0  IDiag  1:
 E= -154.351858165668     Delta-E=       -0.053686193461 Rises=F Damp=F
 DIIS: error= 3.14D-03 at cycle   3 NSaved=   3.
 NSaved= 3 IEnMin= 3 EnMin= -154.351858165668     IErMin= 3 ErrMin= 3.14D-03
 ErrMax= 3.14D-03  0.00D+00 EMaxC= 1.00D-01 BMatC= 8.51D-03 BMatP= 4.06D-02
 IDIUse=3 WtCom= 9.69D-01 WtEn= 3.14D-02
 Coeff-Com: -0.645D-01 0.286D+00 0.779D+00
 Coeff-En:   0.000D+00 0.000D+00 0.100D+01
 Coeff:     -0.625D-01 0.277D+00 0.786D+00
 Gap=     0.330 Goal=   None    Shift=    0.000
 Gap=     0.333 Goal=   None    Shift=    0.000
 RMSDP=2.22D-04 MaxDP=8.03D-03 DE=-5.37D-02 OVMax= 1.34D-02

 Cycle   4  Pass 0  IDiag  1:
 E= -154.353112609837     Delta-E=       -0.001254444169 Rises=F Damp=F
 DIIS: error= 1.92D-03 at cycle   4 NSaved=   4.
 NSaved= 4 IEnMin= 4 EnMin= -154.353112609837     IErMin= 4 ErrMin= 1.92D-03
 ErrMax= 1.92D-03  0.00D+00 EMaxC= 1.00D-01 BMatC= 2.02D-03 BMatP= 8.51D-03
 IDIUse=3 WtCom= 9.81D-01 WtEn= 1.92D-02
 Coeff-Com: -0.198D-01 0.399D-01 0.355D+00 0.625D+00
 Coeff-En:   0.000D+00 0.000D+00 0.723D-01 0.928D+00
 Coeff:     -0.194D-01 0.391D-01 0.350D+00 0.630D+00
 Gap=     0.324 Goal=   None    Shift=    0.000
 Gap=     0.342 Goal=   None    Shift=    0.000
 RMSDP=8.00D-05 MaxDP=2.80D-03 DE=-1.25D-03 OVMax= 7.84D-03

 Cycle   5  Pass 0  IDiag  1:
 E= -154.353549507133     Delta-E=       -0.000436897296 Rises=F Damp=F
 DIIS: error= 3.70D-04 at cycle   5 NSaved=   5.
 NSaved= 5 IEnMin= 5 EnMin= -154.353549507133     IErMin= 5 ErrMin= 3.70D-04
 ErrMax= 3.70D-04  0.00D+00 EMaxC= 1.00D-01 BMatC= 6.51D-05 BMatP= 2.02D-03
 IDIUse=3 WtCom= 9.96D-01 WtEn= 3.70D-03
 Coeff-Com:  0.288D-02-0.169D-01-0.194D-01 0.784D-01 0.955D+00
 Coeff-En:   0.000D+00 0.000D+00 0.000D+00 0.000D+00 0.100D+01
 Coeff:      0.287D-02-0.168D-01-0.193D-01 0.781D-01 0.955D+00
 Gap=     0.326 Goal=   None    Shift=    0.000
 Gap=     0.342 Goal=   None    Shift=    0.000
 RMSDP=2.95D-05 MaxDP=1.54D-03 DE=-4.37D-04 OVMax= 4.27D-03

 Cycle   6  Pass 0  IDiag  1:
 E= -154.353583261295     Delta-E=       -0.000033754162 Rises=F Damp=F
 DIIS: error= 1.66D-04 at cycle   6 NSaved=   6.
 NSaved= 6 IEnMin= 6 EnMin= -154.353583261295     IErMin= 6 ErrMin= 1.66D-04
 ErrMax= 1.66D-04  0.00D+00 EMaxC= 1.00D-01 BMatC= 8.40D-06 BMatP= 6.51D-05
 IDIUse=3 WtCom= 9.98D-01 WtEn= 1.66D-03
 Coeff-Com:  0.290D-02-0.687D-02-0.577D-01-0.942D-01 0.209D-01 0.114D+01
 Coeff-En:   0.000D+00 0.000D+00 0.000D+00 0.000D+00 0.000D+00 0.100D+01
 Coeff:      0.290D-02-0.686D-02-0.576D-01-0.941D-01 0.208D-01 0.113D+01
 Gap=     0.326 Goal=   None    Shift=    0.000
 Gap=     0.342 Goal=   None    Shift=    0.000
 RMSDP=1.70D-05 MaxDP=9.53D-04 DE=-3.38D-05 OVMax= 2.39D-03

 Cycle   7  Pass 0  IDiag  1:
 E= -154.353589200863     Delta-E=       -0.000005939568 Rises=F Damp=F
 DIIS: error= 5.02D-05 at cycle   7 NSaved=   7.
 NSaved= 7 IEnMin= 7 EnMin= -154.353589200863     IErMin= 7 ErrMin= 5.02D-05
 ErrMax= 5.02D-05  0.00D+00 EMaxC= 1.00D-01 BMatC= 1.25D-06 BMatP= 8.40D-06
 IDIUse=1 WtCom= 1.00D+00 WtEn= 0.00D+00
 Coeff-Com:  0.548D-03-0.642D-03-0.165D-01-0.364D-01-0.646D-01 0.397D+00
 Coeff-Com:  0.720D+00
 Coeff:      0.548D-03-0.642D-03-0.165D-01-0.364D-01-0.646D-01 0.397D+00
 Coeff:      0.720D+00
 Gap=     0.326 Goal=   None    Shift=    0.000
 Gap=     0.342 Goal=   None    Shift=    0.000
 RMSDP=2.85D-06 MaxDP=1.48D-04 DE=-5.94D-06 OVMax= 3.14D-04

 Initial convergence to 1.0D-05 achieved.  Increase integral accuracy.
 Cycle   8  Pass 1  IDiag  1:
 E= -154.353580652806     Delta-E=        0.000008548057 Rises=F Damp=F
 DIIS: error= 4.32D-05 at cycle   1 NSaved=   1.
 NSaved= 1 IEnMin= 1 EnMin= -154.353580652806     IErMin= 1 ErrMin= 4.32D-05
 ErrMax= 4.32D-05  0.00D+00 EMaxC= 1.00D-01 BMatC= 9.76D-07 BMatP= 9.76D-07
 IDIUse=1 WtCom= 1.00D+00 WtEn= 0.00D+00
 Coeff-Com:  0.100D+01
 Coeff:      0.100D+01
 Gap=     0.326 Goal=   None    Shift=    0.000
 Gap=     0.342 Goal=   None    Shift=    0.000
 RMSDP=2.85D-06 MaxDP=1.48D-04 DE= 8.55D-06 OVMax= 1.29D-04

 Cycle   9  Pass 1  IDiag  1:
 E= -154.353580822990     Delta-E=       -0.000000170184 Rises=F Damp=F
 DIIS: error= 1.05D-05 at cycle   2 NSaved=   2.
 NSaved= 2 IEnMin= 2 EnMin= -154.353580822990     IErMin= 2 ErrMin= 1.05D-05
 ErrMax= 1.05D-05  0.00D+00 EMaxC= 1.00D-01 BMatC= 6.16D-08 BMatP= 9.76D-07
 IDIUse=1 WtCom= 1.00D+00 WtEn= 0.00D+00
 Coeff-Com:  0.245D-01 0.976D+00
 Coeff:      0.245D-01 0.976D+00
 Gap=     0.326 Goal=   None    Shift=    0.000
 Gap=     0.342 Goal=   None    Shift=    0.000
 RMSDP=9.25D-07 MaxDP=2.63D-05 DE=-1.70D-07 OVMax= 6.25D-05

 Cycle  10  Pass 1  IDiag  1:
 E= -154.353580836180     Delta-E=       -0.000000013189 Rises=F Damp=F
 DIIS: error= 8.37D-06 at cycle   3 NSaved=   3.
 NSaved= 3 IEnMin= 3 EnMin= -154.353580836180     IErMin= 3 ErrMin= 8.37D-06
 ErrMax= 8.37D-06  0.00D+00 EMaxC= 1.00D-01 BMatC= 3.54D-08 BMatP= 6.16D-08
 IDIUse=1 WtCom= 1.00D+00 WtEn= 0.00D+00
 Coeff-Com: -0.512D-01 0.428D+00 0.623D+00
 Coeff:     -0.512D-01 0.428D+00 0.623D+00
 Gap=     0.326 Goal=   None    Shift=    0.000
 Gap=     0.342 Goal=   None    Shift=    0.000
 RMSDP=3.56D-07 MaxDP=1.14D-05 DE=-1.32D-08 OVMax= 2.58D-05

 Cycle  11  Pass 1  IDiag  1:
 E= -154.353580844669     Delta-E=       -0.000000008489 Rises=F Damp=F
 DIIS: error= 1.78D-06 at cycle   4 NSaved=   4.
 NSaved= 4 IEnMin= 4 EnMin= -154.353580844669     IErMin= 4 ErrMin= 1.78D-06
 ErrMax= 1.78D-06  0.00D+00 EMaxC= 1.00D-01 BMatC= 1.75D-09 BMatP= 3.54D-08
 IDIUse=1 WtCom= 1.00D+00 WtEn= 0.00D+00
 Coeff-Com: -0.770D-02-0.546D-01 0.579D-01 0.100D+01
 Coeff:     -0.770D-02-0.546D-01 0.579D-01 0.100D+01
 Gap=     0.326 Goal=   None    Shift=    0.000
 Gap=     0.342 Goal=   None    Shift=    0.000
 RMSDP=1.83D-07 MaxDP=6.86D-06 DE=-8.49D-09 OVMax= 1.49D-05

 Cycle  12  Pass 1  IDiag  1:
 E= -154.353580845469     Delta-E=       -0.000000000800 Rises=F Damp=F
 DIIS: error= 9.01D-07 at cycle   5 NSaved=   5.
 NSaved= 5 IEnMin= 5 EnMin= -154.353580845469     IErMin= 5 ErrMin= 9.01D-07
 ErrMax= 9.01D-07  0.00D+00 EMaxC= 1.00D-01 BMatC= 6.97D-10 BMatP= 1.75D-09
 IDIUse=1 WtCom= 1.00D+00 WtEn= 0.00D+00
 Coeff-Com:  0.638D-02-0.118D+00-0.101D+00 0.474D+00 0.738D+00
 Coeff:      0.638D-02-0.118D+00-0.101D+00 0.474D+00 0.738D+00
 Gap=     0.326 Goal=   None    Shift=    0.000
 Gap=     0.342 Goal=   None    Shift=    0.000
 RMSDP=8.94D-08 MaxDP=3.04D-06 DE=-8.00D-10 OVMax= 7.06D-06

 Cycle  13  Pass 1  IDiag  1:
 E= -154.353580845678     Delta-E=       -0.000000000209 Rises=F Damp=F
 DIIS: error= 1.97D-07 at cycle   6 NSaved=   6.
 NSaved= 6 IEnMin= 6 EnMin= -154.353580845678     IErMin= 6 ErrMin= 1.97D-07
 ErrMax= 1.97D-07  0.00D+00 EMaxC= 1.00D-01 BMatC= 3.82D-11 BMatP= 6.97D-10
 IDIUse=1 WtCom= 1.00D+00 WtEn= 0.00D+00
 Coeff-Com:  0.262D-02-0.284D-01-0.356D-01 0.224D-01 0.215D+00 0.824D+00
 Coeff:      0.262D-02-0.284D-01-0.356D-01 0.224D-01 0.215D+00 0.824D+00
 Gap=     0.326 Goal=   None    Shift=    0.000
 Gap=     0.342 Goal=   None    Shift=    0.000
 RMSDP=2.42D-08 MaxDP=6.31D-07 DE=-2.09D-10 OVMax= 2.18D-06

 Cycle  14  Pass 1  IDiag  1:
 E= -154.353580845693     Delta-E=       -0.000000000015 Rises=F Damp=F
 DIIS: error= 6.46D-08 at cycle   7 NSaved=   7.
 NSaved= 7 IEnMin= 7 EnMin= -154.353580845693     IErMin= 7 ErrMin= 6.46D-08
 ErrMax= 6.46D-08  0.00D+00 EMaxC= 1.00D-01 BMatC= 1.69D-12 BMatP= 3.82D-11
 IDIUse=1 WtCom= 1.00D+00 WtEn= 0.00D+00
 Coeff-Com: -0.411D-03 0.859D-02 0.584D-02-0.409D-01-0.554D-01 0.679D-01
 Coeff-Com:  0.101D+01
 Coeff:     -0.411D-03 0.859D-02 0.584D-02-0.409D-01-0.554D-01 0.679D-01
 Coeff:      0.101D+01
 Gap=     0.326 Goal=   None    Shift=    0.000
 Gap=     0.342 Goal=   None    Shift=    0.000
 RMSDP=7.09D-09 MaxDP=2.17D-07 DE=-1.50D-11 OVMax= 7.23D-07

 SCF Done:  E(UM062X) =  -154.353580846     A.U. after   14 cycles
            NFock= 14  Conv=0.71D-08     -V/T= 2.0053
 <Sx>= 0.0000 <Sy>= 0.0000 <Sz>= 0.5000 <S**2>= 0.7552 S= 0.5026
 <L.S>= 0.000000000000E+00
 KE= 1.535351148290D+02 PE=-5.115776107765D+02 EE= 1.284094548609D+02
 Annihilation of the first spin contaminant:
 S**2 before annihilation     0.7552,   after     0.7500
 Leave Link  502 at Wed Aug 28 08:01:48 2019, MaxMem=   671088640 cpu:             683.6 elap:              88.5
 (Enter /shared/centos7/gaussian/g16/l801.exe)
 DoSCS=F DFT=T ScalE2(SS,OS)=  1.000000  1.000000
 Range of M.O.s used for correlation:     1   160
 NBasis=   160 NAE=    13 NBE=    12 NFC=     0 NFV=     0
 NROrb=    160 NOA=    13 NOB=    12 NVA=   147 NVB=   148
 Leave Link  801 at Wed Aug 28 08:01:48 2019, MaxMem=   671088640 cpu:               2.4 elap:               0.3
 (Enter /shared/centos7/gaussian/g16/l1101.exe)
 Using compressed storage, NAtomX=     8.
 Will process      9 centers per pass.
 Leave Link 1101 at Wed Aug 28 08:01:53 2019, MaxMem=   671088640 cpu:              37.6 elap:               4.7
 (Enter /shared/centos7/gaussian/g16/l1102.exe)
 Symmetrizing basis deriv contribution to polar:
 IMax=3 JMax=2 DiffMx= 0.00D+00
 Leave Link 1102 at Wed Aug 28 08:01:54 2019, MaxMem=   671088640 cpu:               4.9 elap:               0.6
 (Enter /shared/centos7/gaussian/g16/l1110.exe)
 Forming Gx(P) for the SCF density, NAtomX=     8.
 Integral derivatives from FoFJK, PRISM(SPDF).
 Do as many integral derivatives as possible in FoFJK.
 G2DrvN: MDV=     671087928.
 G2DrvN: will do     9 centers at a time, making    1 passes.
 Calling FoFCou, ICntrl=  3107 FMM=F I1Cent=   0 AccDes= 0.00D+00.
 FoFJK:  IHMeth= 1 ICntrl=    3107 DoSepK=F KAlg= 0 I1Cent=           0 FoldK=F
 IRaf=         0 NMat=       1 IRICut=       1 DoRegI=T DoRafI=F ISym2E= 0 IDoP0=0 IntGTp=1.
 FoFCou: FMM=F IPFlag=           0 FMFlag=      100000 FMFlg1=           0
         NFxFlg=           0 DoJE=F BraDBF=F KetDBF=F FulRan=T
         wScrn=  0.000000 ICntrl=      3107 IOpCl=  1 I1Cent=           0 NGrid=           0
         NMat0=    1 NMatS0=      1 NMatT0=    0 NMatD0=    1 NMtDS0=    0 NMtDT0=    0
 Symmetry not used in FoFCou.
 End of G2Drv F.D. properties file   721 does not exist.
 End of G2Drv F.D. properties file   722 does not exist.
 End of G2Drv F.D. properties file   788 does not exist.
 Leave Link 1110 at Wed Aug 28 08:03:12 2019, MaxMem=   671088640 cpu:             626.0 elap:              78.3
 (Enter /shared/centos7/gaussian/g16/l1002.exe)
 Minotr:  UHF open shell wavefunction.
          IDoAtm=11111111
          Direct CPHF calculation.
          Differentiating once with respect to nuclear coordinates.
          Requested convergence is 1.0D-08 RMS, and 1.0D-07 maximum.
          Secondary convergence is 1.0D-12 RMS, and 1.0D-12 maximum.
          NewPWx=T KeepS1=F KeepF1=F KeepIn=T MapXYZ=F SortEE=F KeepMc=T.
         2371 words used for storage of precomputed grid.
 Keep R1 and R2 ints in memory in canonical form, NReq=186024337.
 FoFCou: FMM=F IPFlag=           0 FMFlag=           0 FMFlg1=           0
         NFxFlg=           0 DoJE=F BraDBF=F KetDBF=F FulRan=T
         wScrn=  0.000000 ICntrl=       600 IOpCl=  0 I1Cent=           0 NGrid=           0
         NMat0=    1 NMatS0=  12880 NMatT0=    0 NMatD0=    1 NMtDS0=    0 NMtDT0=    0
 Symmetry not used in FoFCou.
 Two-electron integral symmetry not used.
          MDV=     671088640 using IRadAn=       1.
          Solving linear equations simultaneously, MaxMat=       0.
          There are    27 degrees of freedom in the 1st order CPHF.  IDoFFX=6 NUNeed=     0.
     21 vectors produced by pass  0 Test12= 1.37D-14 3.70D-09 XBig12= 1.29D-01 1.28D-01.
 AX will form    21 AO Fock derivatives at one time.
     21 vectors produced by pass  1 Test12= 1.37D-14 3.70D-09 XBig12= 9.79D-03 1.72D-02.
     21 vectors produced by pass  2 Test12= 1.37D-14 3.70D-09 XBig12= 3.39D-04 4.68D-03.
     21 vectors produced by pass  3 Test12= 1.37D-14 3.70D-09 XBig12= 4.47D-06 7.22D-04.
     21 vectors produced by pass  4 Test12= 1.37D-14 3.70D-09 XBig12= 6.53D-08 4.35D-05.
     21 vectors produced by pass  5 Test12= 1.37D-14 3.70D-09 XBig12= 6.71D-10 3.73D-06.
     21 vectors produced by pass  6 Test12= 1.37D-14 3.70D-09 XBig12= 5.75D-12 3.44D-07.
      9 vectors produced by pass  7 Test12= 1.37D-14 3.70D-09 XBig12= 4.22D-14 2.49D-08.
 InvSVY:  IOpt=1 It=  1 EMax= 1.78D-15
 Solved reduced A of dimension   156 with    21 vectors.
 End of Minotr F.D. properties file   721 does not exist.
 End of Minotr F.D. properties file   722 does not exist.
 End of Minotr F.D. properties file   788 does not exist.
 Leave Link 1002 at Wed Aug 28 08:05:55 2019, MaxMem=   671088640 cpu:            1302.2 elap:             162.8
 (Enter /shared/centos7/gaussian/g16/l601.exe)
 Copying SCF densities to generalized density rwf, IOpCl= 1 IROHF=0.

 **********************************************************************

            Population analysis using the SCF density.

 **********************************************************************

 Orbital symmetries:
 Alpha Orbitals:
       Occupied  (A) (A) (A) (A) (A) (A) (A) (A) (A) (A) (A) (A)
                 (A)
       Virtual   (A) (A) (A) (A) (A) (A) (A) (A) (A) (A) (A) (A)
                 (A) (A) (A) (A) (A) (A) (A) (A) (A) (A) (A) (A)
                 (A) (A) (A) (A) (A) (A) (A) (A) (A) (A) (A) (A)
                 (A) (A) (A) (A) (A) (A) (A) (A) (A) (A) (A) (A)
                 (A) (A) (A) (A) (A) (A) (A) (A) (A) (A) (A) (A)
                 (A) (A) (A) (A) (A) (A) (A) (A) (A) (A) (A) (A)
                 (A) (A) (A) (A) (A) (A) (A) (A) (A) (A) (A) (A)
                 (A) (A) (A) (A) (A) (A) (A) (A) (A) (A) (A) (A)
                 (A) (A) (A) (A) (A) (A) (A) (A) (A) (A) (A) (A)
                 (A) (A) (A) (A) (A) (A) (A) (A) (A) (A) (A) (A)
                 (A) (A) (A) (A) (A) (A) (A) (A) (A) (A) (A) (A)
                 (A) (A) (A) (A) (A) (A) (A) (A) (A) (A) (A) (A)
                 (A) (A) (A)
 Beta  Orbitals:
       Occupied  (A) (A) (A) (A) (A) (A) (A) (A) (A) (A) (A) (A)
       Virtual   (A) (A) (A) (A) (A) (A) (A) (A) (A) (A) (A) (A)
                 (A) (A) (A) (A) (A) (A) (A) (A) (A) (A) (A) (A)
                 (A) (A) (A) (A) (A) (A) (A) (A) (A) (A) (A) (A)
                 (A) (A) (A) (A) (A) (A) (A) (A) (A) (A) (A) (A)
                 (A) (A) (A) (A) (A) (A) (A) (A) (A) (A) (A) (A)
                 (A) (A) (A) (A) (A) (A) (A) (A) (A) (A) (A) (A)
                 (A) (A) (A) (A) (A) (A) (A) (A) (A) (A) (A) (A)
                 (A) (A) (A) (A) (A) (A) (A) (A) (A) (A) (A) (A)
                 (A) (A) (A) (A) (A) (A) (A) (A) (A) (A) (A) (A)
                 (A) (A) (A) (A) (A) (A) (A) (A) (A) (A) (A) (A)
                 (A) (A) (A) (A) (A) (A) (A) (A) (A) (A) (A) (A)
                 (A) (A) (A) (A) (A) (A) (A) (A) (A) (A) (A) (A)
                 (A) (A) (A) (A)
 The electronic state is 2-A.
 Alpha  occ. eigenvalues --  -19.61930 -10.58926 -10.53983  -1.14594  -0.84885
 Alpha  occ. eigenvalues --   -0.69198  -0.60293  -0.53736  -0.48929  -0.46998
 Alpha  occ. eigenvalues --   -0.41574  -0.36213  -0.26097
 Alpha virt. eigenvalues --    0.06518   0.10561   0.12630   0.13839   0.15594
 Alpha virt. eigenvalues --    0.20397   0.23602   0.30581   0.36824   0.37802
 Alpha virt. eigenvalues --    0.39619   0.40827   0.42061   0.45447   0.48296
 Alpha virt. eigenvalues --    0.50418   0.51697   0.52986   0.55669   0.59491
 Alpha virt. eigenvalues --    0.60459   0.62521   0.69970   0.71810   0.73677
 Alpha virt. eigenvalues --    0.79809   0.85875   0.91692   0.94366   1.01299
 Alpha virt. eigenvalues --    1.01788   1.03302   1.06970   1.09636   1.10969
 Alpha virt. eigenvalues --    1.12464   1.16933   1.20657   1.23442   1.27102
 Alpha virt. eigenvalues --    1.29566   1.35456   1.36983   1.37405   1.42680
 Alpha virt. eigenvalues --    1.45674   1.53204   1.59160   1.65663   1.85848
 Alpha virt. eigenvalues --    1.97606   2.03855   2.08998   2.12817   2.17729
 Alpha virt. eigenvalues --    2.18910   2.25021   2.30735   2.40293   2.42084
 Alpha virt. eigenvalues --    2.53472   2.56368   2.58771   2.69817   2.72290
 Alpha virt. eigenvalues --    2.77085   2.82039   2.82419   2.87458   2.89801
 Alpha virt. eigenvalues --    2.90224   2.95086   2.96804   2.99014   3.03544
 Alpha virt. eigenvalues --    3.05194   3.09664   3.10663   3.13464   3.15717
 Alpha virt. eigenvalues --    3.17556   3.31679   3.33514   3.39050   3.39545
 Alpha virt. eigenvalues --    3.40749   3.43139   3.46653   3.52009   3.53884
 Alpha virt. eigenvalues --    3.57507   3.64898   3.68675   3.69442   3.73627
 Alpha virt. eigenvalues --    3.78158   3.82536   3.84482   3.86137   3.89496
 Alpha virt. eigenvalues --    3.91810   3.94574   3.98605   4.00168   4.03038
 Alpha virt. eigenvalues --    4.07619   4.09375   4.16618   4.17622   4.28363
 Alpha virt. eigenvalues --    4.33732   4.39651   4.45461   4.56590   4.66080
 Alpha virt. eigenvalues --    4.68412   4.70060   4.74044   4.77566   4.81999
 Alpha virt. eigenvalues --    4.90484   4.95997   4.97660   5.04807   5.11003
 Alpha virt. eigenvalues --    5.21567   5.33059   5.34887   5.42423   5.49334
 Alpha virt. eigenvalues --    5.54244   5.70745   5.78122   5.86468   5.95318
 Alpha virt. eigenvalues --    6.15125   6.48492   6.64540   6.68722   6.72180
 Alpha virt. eigenvalues --    6.86553   6.93938   7.11127   7.38838  11.46871
 Alpha virt. eigenvalues --   11.98060  12.79067
  Beta  occ. eigenvalues --  -19.61922 -10.58996 -10.53248  -1.14528  -0.82697
  Beta  occ. eigenvalues --   -0.66633  -0.59876  -0.52530  -0.48262  -0.45996
  Beta  occ. eigenvalues --   -0.40968  -0.35484
  Beta virt. eigenvalues --   -0.01246   0.06203   0.10102   0.12477   0.13058
  Beta virt. eigenvalues --    0.15449   0.20142   0.23563   0.29441   0.35435
  Beta virt. eigenvalues --    0.37461   0.39867   0.41016   0.41951   0.44697
  Beta virt. eigenvalues --    0.47999   0.50358   0.52317   0.53826   0.56175
  Beta virt. eigenvalues --    0.59751   0.60856   0.63735   0.69615   0.71551
  Beta virt. eigenvalues --    0.73625   0.79596   0.85201   0.91298   0.94061
  Beta virt. eigenvalues --    1.00111   1.01424   1.03370   1.06796   1.09291
  Beta virt. eigenvalues --    1.11539   1.12517   1.17465   1.20829   1.23093
  Beta virt. eigenvalues --    1.27545   1.29814   1.35177   1.37236   1.37954
  Beta virt. eigenvalues --    1.42825   1.45741   1.54742   1.59058   1.67059
  Beta virt. eigenvalues --    1.86336   1.98113   2.03760   2.08987   2.13203
  Beta virt. eigenvalues --    2.19533   2.23094   2.26970   2.31226   2.40911
  Beta virt. eigenvalues --    2.43558   2.55920   2.58290   2.61442   2.72089
  Beta virt. eigenvalues --    2.76184   2.80310   2.84297   2.85544   2.90443
  Beta virt. eigenvalues --    2.91286   2.92916   2.97022   2.98074   3.00915
  Beta virt. eigenvalues --    3.06917   3.08321   3.11972   3.13344   3.14751
  Beta virt. eigenvalues --    3.16840   3.18282   3.32487   3.34586   3.40059
  Beta virt. eigenvalues --    3.40955   3.41603   3.43705   3.47541   3.52691
  Beta virt. eigenvalues --    3.54973   3.58572   3.65282   3.69186   3.70158
  Beta virt. eigenvalues --    3.74582   3.78993   3.83051   3.84825   3.86581
  Beta virt. eigenvalues --    3.90786   3.92623   3.95411   3.99698   4.00779
  Beta virt. eigenvalues --    4.04236   4.08681   4.09673   4.17688   4.18747
  Beta virt. eigenvalues --    4.29809   4.34953   4.40358   4.46580   4.58997
  Beta virt. eigenvalues --    4.68081   4.69654   4.71604   4.75805   4.80989
  Beta virt. eigenvalues --    4.84710   4.93886   4.97391   5.00470   5.07184
  Beta virt. eigenvalues --    5.14438   5.22204   5.34679   5.38722   5.46835
  Beta virt. eigenvalues --    5.53333   5.55902   5.75486   5.78856   5.88537
  Beta virt. eigenvalues --    5.95542   6.15586   6.48521   6.64556   6.68934
  Beta virt. eigenvalues --    6.72209   6.86581   6.93890   7.11163   7.38881
  Beta virt. eigenvalues --   11.47046  11.98672  12.80011
          Condensed to atoms (all electrons):
               1          2          3          4          5          6
     1  O    7.868923   0.339200  -0.053070  -0.048260  -0.056477   0.003148
     2  C    0.339200   4.636081   0.299599   0.396827   0.403082  -0.041304
     3  C   -0.053070   0.299599   5.480055  -0.052548  -0.059487   0.389029
     4  H   -0.048260   0.396827  -0.052548   0.717079  -0.091188  -0.001291
     5  H   -0.056477   0.403082  -0.059487  -0.091188   0.731096   0.001884
     6  H    0.003148  -0.041304   0.389029  -0.001291   0.001884   0.519019
     7  H    0.005688  -0.038651   0.383826   0.007558  -0.000645  -0.030604
     8  H    0.324588  -0.033311   0.009200  -0.006141  -0.006414  -0.000661
               7          8
     1  O    0.005688   0.324588
     2  C   -0.038651  -0.033311
     3  C    0.383826   0.009200
     4  H    0.007558  -0.006141
     5  H   -0.000645  -0.006414
     6  H   -0.030604  -0.000661
     7  H    0.493203  -0.000448
     8  H   -0.000448   0.468288
          Atomic-Atomic Spin Densities.
               1          2          3          4          5          6
     1  O    0.008771   0.000558  -0.000711   0.004104  -0.005877  -0.000119
     2  C    0.000558  -0.073602  -0.037402   0.012406   0.018751   0.003077
     3  C   -0.000711  -0.037402   1.162052  -0.021740  -0.037636  -0.001718
     4  H    0.004104   0.012406  -0.021740   0.058520  -0.021622   0.001171
     5  H   -0.005877   0.018751  -0.037636  -0.021622   0.100931  -0.000912
     6  H   -0.000119   0.003077  -0.001718   0.001171  -0.000912  -0.047843
     7  H    0.000847   0.004144  -0.004525   0.000194  -0.000939   0.004179
     8  H   -0.002123   0.000595   0.000669  -0.001263   0.002755   0.000017
               7          8
     1  O    0.000847  -0.002123
     2  C    0.004144   0.000595
     3  C   -0.004525   0.000669
     4  H    0.000194  -0.001263
     5  H   -0.000939   0.002755
     6  H    0.004179   0.000017
     7  H   -0.042629  -0.000072
     8  H   -0.000072   0.000183
 Mulliken charges and spin densities:
               1          2
     1  O   -0.383739   0.005450
     2  C    0.038477  -0.071473
     3  C   -0.396605   1.058989
     4  H    0.077964   0.031771
     5  H    0.078149   0.055451
     6  H    0.160780  -0.042149
     7  H    0.180073  -0.038800
     8  H    0.244900   0.000761
 Sum of Mulliken charges =  -0.00000   1.00000
 Mulliken charges and spin densities with hydrogens summed into heavy atoms:
               1          2
     1  O   -0.138839   0.006211
     2  C    0.194591   0.015749
     3  C   -0.055752   0.978040
 APT charges:
               1
     1  O   -0.657263
     2  C   -0.481452
     3  C   -0.808129
     4  H    0.290609
     5  H    0.283064
     6  H    0.447032
     7  H    0.354623
     8  H    0.571517
 Sum of APT charges =  -0.00000
 APT charges with hydrogens summed into heavy atoms:
               1
     1  O   -0.085747
     2  C    0.092220
     3  C   -0.006474
 Electronic spatial extent (au):  <R**2>=            178.8973
 Charge=             -0.0000 electrons
 Dipole moment (field-independent basis, Debye):
    X=             -0.2905    Y=              1.6756    Z=              0.3855  Tot=              1.7437
 Quadrupole moment (field-independent basis, Debye-Ang):
   XX=            -16.2083   YY=            -19.3946   ZZ=            -20.5046
   XY=             -1.7629   XZ=             -0.4787   YZ=             -0.4173
 Traceless Quadrupole moment (field-independent basis, Debye-Ang):
   XX=              2.4942   YY=             -0.6921   ZZ=             -1.8021
   XY=             -1.7629   XZ=             -0.4787   YZ=             -0.4173
 Octapole moment (field-independent basis, Debye-Ang**2):
  XXX=            -13.9936  YYY=             -1.4088  ZZZ=              0.3177  XYY=             -0.7230
  XXY=              2.8670  XXZ=              0.3544  XZZ=             -2.9837  YZZ=              0.8400
  YYZ=              0.3346  XYZ=             -0.4979
 Hexadecapole moment (field-independent basis, Debye-Ang**3):
 XXXX=           -122.1907 YYYY=            -54.1527 ZZZZ=            -28.8126 XXXY=              0.5707
 XXXZ=             -2.7424 YYYX=             -0.3292 YYYZ=             -1.2303 ZZZX=              0.1297
 ZZZY=             -0.1781 XXYY=            -34.2837 XXZZ=            -32.5554 YYZZ=            -13.6150
 XXYZ=             -0.7704 YYXZ=              0.5660 ZZXY=              0.6042
 N-N= 7.527946024090D+01 E-N=-5.115776142546D+02  KE= 1.535351148290D+02
  Exact polarizability:   0.000   0.000   0.000   0.000   0.000   0.000
 Approx polarizability:  34.064  -0.864  32.158  -0.716  -0.156  27.030
                          Isotropic Fermi Contact Couplings
        Atom                 a.u.       MegaHertz       Gauss      10(-4) cm-1
     1  O(17)              0.01015      -6.15249      -2.19536      -2.05225
     2  C(13)             -0.03593     -40.39440     -14.41373     -13.47412
     3  C(13)              0.18732     210.58339      75.14139      70.24306
     4  H(1)               0.01564      69.92331      24.95038      23.32391
     5  H(1)               0.02747     122.78277      43.81195      40.95592
     6  H(1)              -0.01607     -71.81738     -25.62623     -23.95570
     7  H(1)              -0.01585     -70.84654     -25.27981     -23.63186
     8  H(1)              -0.00026      -1.17105      -0.41786      -0.39062
 --------------------------------------------------------
       Center         ----  Spin Dipole Couplings  ----
                      3XX-RR        3YY-RR        3ZZ-RR
 --------------------------------------------------------
     1   Atom        0.023380     -0.006957     -0.016422
     2   Atom        0.003284     -0.011235      0.007951
     3   Atom       -0.531723     -0.481467      1.013190
     4   Atom        0.000694      0.005877     -0.006572
     5   Atom        0.002599      0.001353     -0.003951
     6   Atom        0.041334     -0.036708     -0.004626
     7   Atom       -0.072309      0.070847      0.001461
     8   Atom        0.007653     -0.003705     -0.003948
 --------------------------------------------------------
                        XY            XZ            YZ
 --------------------------------------------------------
     1   Atom        0.013317      0.002964      0.008722
     2   Atom       -0.006113     -0.008970     -0.000005
     3   Atom        0.040417      0.176515      0.323808
     4   Atom       -0.013316      0.006174     -0.007116
     5   Atom       -0.010687     -0.005038      0.010263
     6   Atom        0.063427     -0.011524      0.004038
     7   Atom        0.004797      0.006997     -0.021529
     8   Atom       -0.000387      0.000055      0.000628
 --------------------------------------------------------


 ---------------------------------------------------------------------------------
              Anisotropic Spin Dipole Couplings in Principal Axis System
 ---------------------------------------------------------------------------------

       Atom             a.u.   MegaHertz   Gauss  10(-4) cm-1        Axes

              Baa    -0.0221     1.599     0.571     0.533  0.1135 -0.5689  0.8145
     1 O(17)  Bbb    -0.0071     0.511     0.182     0.171 -0.3762  0.7342  0.5652
              Bcc     0.0292    -2.110    -0.753    -0.704  0.9196  0.3705  0.1307
 
              Baa    -0.0140    -1.876    -0.670    -0.626  0.4044  0.8995  0.1656
     2 C(13)  Bbb    -0.0015    -0.195    -0.069    -0.065  0.6593 -0.4122  0.6289
              Bcc     0.0154     2.071     0.739     0.691 -0.6339  0.1452  0.7597
 
              Baa    -0.5543   -74.375   -26.539   -24.809  0.8303 -0.5569  0.0215
     3 C(13)  Bbb    -0.5462   -73.289   -26.151   -24.447  0.5463  0.8056 -0.2291
              Bcc     1.1004   147.664    52.690    49.255  0.1102  0.2020  0.9732
 
              Baa    -0.0104    -5.540    -1.977    -1.848  0.7884  0.4741 -0.3919
     4 H(1)   Bbb    -0.0098    -5.222    -1.863    -1.742  0.1271  0.4978  0.8579
              Bcc     0.0202    10.761     3.840     3.590 -0.6019  0.7262 -0.3322
 
              Baa    -0.0126    -6.731    -2.402    -2.245  0.2670  0.6949 -0.6678
     5 H(1)   Bbb    -0.0054    -2.894    -1.033    -0.965  0.7516  0.2835  0.5955
              Bcc     0.0180     9.626     3.435     3.211 -0.6031  0.6609  0.4466
 
              Baa    -0.0734   -39.152   -13.971   -13.060 -0.4898  0.8617 -0.1327
     6 H(1)   Bbb    -0.0042    -2.242    -0.800    -0.748  0.0212  0.1639  0.9862
              Bcc     0.0776    41.395    14.771    13.808  0.8716  0.4802 -0.0986
 
              Baa    -0.0733   -39.109   -13.955   -13.045  0.9930 -0.0490 -0.1071
     7 H(1)   Bbb    -0.0037    -1.992    -0.711    -0.664  0.1164  0.2685  0.9562
              Bcc     0.0770    41.101    14.666    13.710  0.0181  0.9620 -0.2724
 
              Baa    -0.0045    -2.387    -0.852    -0.796 -0.0239 -0.6400  0.7680
     8 H(1)   Bbb    -0.0032    -1.703    -0.608    -0.568  0.0241  0.7676  0.6405
              Bcc     0.0077     4.090     1.460     1.364  0.9994 -0.0338  0.0029
 

 ---------------------------------------------------------------------------------

 No NMR shielding tensors so no spin-rotation constants.
 Leave Link  601 at Wed Aug 28 08:06:02 2019, MaxMem=   671088640 cpu:              55.7 elap:               7.0
 (Enter /shared/centos7/gaussian/g16/l701.exe)
 ... and contract with generalized density number  0.
 Compute integral second derivatives.
 Leave Link  701 at Wed Aug 28 08:06:06 2019, MaxMem=   671088640 cpu:              28.4 elap:               3.6
 (Enter /shared/centos7/gaussian/g16/l702.exe)
 L702 exits ... SP integral derivatives will be done elsewhere.
 Leave Link  702 at Wed Aug 28 08:06:06 2019, MaxMem=   671088640 cpu:               1.8 elap:               0.3
 (Enter /shared/centos7/gaussian/g16/l703.exe)
 Integral derivatives from FoFJK, PRISM(SPDF).
 Compute integral second derivatives, UseDBF=F ICtDFT=           0.
 Calling FoFJK, ICntrl=    100147 FMM=F ISym2X=0 I1Cent= 0 IOpClX= 1 NMat=1 NMatS=1 NMatT=0.
 FoFJK:  IHMeth= 1 ICntrl=  100147 DoSepK=F KAlg= 0 I1Cent=           0 FoldK=F
 IRaf=         0 NMat=       1 IRICut=       1 DoRegI=T DoRafI=F ISym2E= 0 IDoP0=0 IntGTp=1.
 FoFCou: FMM=F IPFlag=           0 FMFlag=      100000 FMFlg1=         800
         NFxFlg=           0 DoJE=F BraDBF=F KetDBF=F FulRan=T
         wScrn=  0.000000 ICntrl=    100147 IOpCl=  1 I1Cent=           0 NGrid=           0
         NMat0=    1 NMatS0=      1 NMatT0=    0 NMatD0=    1 NMtDS0=    0 NMtDT0=    0
 Symmetry not used in FoFCou.
 Leave Link  703 at Wed Aug 28 08:07:41 2019, MaxMem=   671088640 cpu:             763.3 elap:              95.4
 (Enter /shared/centos7/gaussian/g16/l716.exe)
 Dipole        =-1.14310134D-01 6.59214387D-01 1.51654454D-01
 Polarizability= 0.00000000D+00 0.00000000D+00 0.00000000D+00
                 0.00000000D+00 0.00000000D+00 0.00000000D+00
 ***** Axes restored to original set *****
 -------------------------------------------------------------------
 Center     Atomic                   Forces (Hartrees/Bohr)
 Number     Number              X              Y              Z
 -------------------------------------------------------------------
      1        8           0.000017233   -0.000010419   -0.000015596
      2        6          -0.000044246    0.000025454    0.000021694
      3        6          -0.000013650   -0.000001344    0.000021508
      4        1           0.000002418   -0.000009141   -0.000010218
      5        1           0.000013145    0.000000475   -0.000009619
      6        1           0.000006014    0.000009415   -0.000007577
      7        1           0.000010729    0.000002457    0.000005263
      8        1           0.000008357   -0.000016896   -0.000005457
 -------------------------------------------------------------------
 Cartesian Forces:  Max     0.000044246 RMS     0.000015209
 Force constants in Cartesian coordinates: 
                1             2             3             4             5 
      1  0.275041D+00
      2 -0.205966D+00  0.562637D+00
      3 -0.124214D+00 -0.822436D-01  0.222047D+00
      4 -0.162810D+00  0.474583D-01  0.815846D-01  0.492592D+00
      5  0.159429D-01 -0.908658D-01  0.252288D-02 -0.524065D-02  0.519454D+00
      6  0.963044D-01 -0.254228D-01 -0.149427D+00  0.162677D-01 -0.126729D-01
      7 -0.177414D-01  0.351520D-01 -0.148405D-02 -0.748887D-01  0.620641D-01
      8  0.129167D-01 -0.163728D-01 -0.152616D-02  0.733221D-01 -0.203989D+00
      9  0.168765D-01 -0.308443D-01  0.624208D-02 -0.110007D-01  0.576728D-01
     10  0.429977D-02  0.400154D-02  0.361615D-01 -0.862666D-01 -0.137533D-02
     11  0.263437D-02  0.692328D-03 -0.110112D-01  0.110474D-03 -0.474400D-01
     12  0.875707D-02 -0.580411D-02 -0.257402D-01 -0.830279D-01 -0.912537D-02
     13 -0.306898D-01 -0.113025D-01  0.132880D-01 -0.156696D+00 -0.106616D+00
     14  0.960837D-02  0.108906D-01 -0.107372D-02 -0.123459D+00 -0.163171D+00
     15  0.282161D-01  0.140853D-01 -0.449618D-02 -0.121474D-01 -0.129875D-01
     16 -0.106462D-02  0.290904D-02  0.393684D-04 -0.270800D-02 -0.732285D-03
     17  0.188256D-02 -0.568660D-02  0.197350D-02  0.124055D-01 -0.261433D-02
     18 -0.127017D-02  0.221037D-02  0.559985D-03 -0.580318D-02  0.427620D-02
     19  0.875087D-03 -0.151111D-02 -0.718258D-03  0.358980D-02  0.424242D-02
     20 -0.155752D-02  0.283442D-02 -0.141995D-02 -0.269503D-02 -0.393432D-02
     21 -0.243886D-03 -0.238661D-03  0.857394D-03  0.160414D-02 -0.133000D-02
     22 -0.679096D-01  0.129258D+00 -0.465682D-02 -0.128117D-01  0.317145D-01
     23  0.164538D+00 -0.464129D+00  0.927782D-01 -0.190142D-02 -0.743912D-02
     24 -0.244257D-01  0.128258D+00 -0.500427D-01  0.125227D-01 -0.283560D-01
                6             7             8             9            10 
      6  0.542813D+00
      7 -0.167812D-02  0.248334D+00
      8  0.422510D-01 -0.211458D+00  0.441763D+00
      9 -0.969278D-01 -0.173496D+00 -0.716862D-01  0.585645D+00
     10 -0.887791D-01 -0.299064D-03  0.402158D-03 -0.968067D-02  0.903784D-01
     11 -0.467376D-02  0.849408D-02 -0.406457D-02  0.297210D-01 -0.422953D-03
     12 -0.252830D+00 -0.465706D-02  0.547398D-02 -0.754257D-02  0.843751D-01
     13 -0.122853D-01  0.107503D-01  0.548006D-02 -0.363629D-03 -0.818568D-02
     14 -0.122503D-01 -0.111731D-01 -0.274945D-01  0.320041D-02 -0.262333D-02
     15 -0.489699D-01  0.485436D-02  0.953122D-02  0.171723D-02 -0.220988D-01
     16  0.554738D-02 -0.136563D+00  0.110848D+00  0.128478D+00  0.188712D-03
     17 -0.191171D-01  0.107005D+00 -0.115764D+00 -0.808406D-01  0.658927D-04
     18  0.648729D-02  0.126243D+00 -0.839720D-01 -0.169112D+00  0.183083D-03
     19 -0.823382D-02 -0.254427D-01  0.737368D-02  0.441664D-01 -0.134492D-02
     20  0.263568D-01  0.805849D-02 -0.734339D-01  0.948290D-01  0.105457D-02
     21 -0.318159D-02  0.474026D-01  0.100551D+00 -0.316669D+00 -0.400554D-04
     22 -0.714310D-02 -0.414917D-02  0.111483D-02  0.502010D-02  0.122932D-02
     23  0.552907D-02  0.185698D-02 -0.644174D-03 -0.205214D-02 -0.110255D-02
     24  0.203639D-02  0.281564D-02 -0.622544D-03 -0.335304D-02 -0.120974D-03
               11            12            13            14            15 
     11  0.532405D-01
     12  0.823720D-02  0.288050D+00
     13 -0.122174D-01 -0.413658D-02  0.185115D+00
     14  0.222869D-03 -0.710931D-03  0.126752D+00  0.179446D+00
     15 -0.216239D-01 -0.246970D-02  0.304480D-02  0.100077D-01  0.539840D-01
     16 -0.332776D-03  0.270327D-03 -0.244633D-03  0.870651D-03  0.121377D-03
     17  0.784962D-03  0.970375D-03 -0.915672D-03 -0.110630D-03  0.303794D-03
     18 -0.105356D-02  0.535766D-03  0.374971D-03  0.287730D-03  0.146397D-03
     19  0.212958D-02 -0.170800D-02 -0.579550D-03  0.371192D-03 -0.724068D-03
     20 -0.365805D-02  0.182296D-03  0.962797D-04 -0.117567D-02 -0.218796D-03
     21  0.137249D-02  0.138432D-03 -0.274941D-03 -0.366794D-04 -0.560268D-03
     22 -0.395406D-03  0.127056D-03  0.530329D-03 -0.346726D-03 -0.126638D-02
     23  0.221995D-03  0.776561D-03 -0.127743D-02  0.139219D-02  0.902249D-03
     24 -0.968248D-03 -0.142223D-03  0.352692D-03  0.575818D-03  0.648399D-03
               16            17            18            19            20 
     16  0.139320D+00
     17 -0.115090D+00  0.115555D+00
     18 -0.133840D+00  0.914037D-01  0.169052D+00
     19  0.120315D-02 -0.655706D-02  0.145503D-01  0.216150D-01
     20  0.116014D-02  0.752493D-02 -0.136329D-01 -0.572852D-02  0.714547D-01
     21 -0.112150D-02  0.614577D-02 -0.847466D-02 -0.473655D-01 -0.106015D+00
     22 -0.131825D-03  0.120320D-02 -0.437207D-03  0.841162D-04 -0.388423D-03
     23  0.366673D-03  0.310700D-03  0.480424D-03 -0.320194D-03  0.387911D-03
     24  0.505393D-03 -0.839443D-03  0.805696D-03  0.330438D-04 -0.816690D-04
               21            22            23            24 
     21  0.327645D+00
     22  0.391909D-04  0.831585D-01
     23 -0.448802D-03 -0.162160D+00  0.469900D+00
     24  0.244440D-03  0.831716D-02 -0.979656D-01  0.498031D-01
 FormGI is forming the generalized inverse of G from B-inverse, IUseBI=4.
 Force constants in internal coordinates: 
                1             2             3             4             5 
      1  0.368856D+00
      2 -0.196069D-02  0.546894D+00
      3  0.203786D-01  0.383986D-03  0.328730D+00
      4  0.165444D-01 -0.227274D-03  0.103199D-01  0.319321D+00
      5  0.165700D-01 -0.987592D-04  0.153626D-01  0.633422D-02  0.309371D+00
      6  0.882941D-03 -0.128510D-03  0.165313D-02  0.621901D-03  0.328285D-03
      7  0.434211D-03 -0.574615D-03  0.214626D-02 -0.256172D-03  0.428430D-04
      8  0.459111D-01  0.161631D-01  0.525846D-02  0.955710D-03  0.762824D-03
      9  0.254958D-01  0.827386D-02  0.233029D-01 -0.337841D-02 -0.468422D-02
     10  0.125899D-01 -0.340179D-02 -0.143815D-01 -0.190320D-03 -0.648753D-03
     11  0.134680D-01 -0.436834D-02 -0.169854D-01 -0.476045D-03  0.162328D-02
     12 -0.240785D-01 -0.106343D-02  0.873822D-02  0.505329D-02 -0.585051D-02
     13 -0.240863D-01 -0.536209D-03  0.907076D-02 -0.611738D-02  0.451327D-02
     14 -0.481181D-02  0.810779D-03 -0.104422D-01  0.520707D-02  0.529932D-02
     15  0.690867D-02  0.623923D-03  0.562143D-02 -0.494252D-03  0.807916D-03
     16 -0.546223D-02 -0.807393D-03  0.928768D-02  0.165121D-02  0.256103D-03
     17 -0.146887D-02  0.158124D-03 -0.146412D-01 -0.117632D-02 -0.100104D-02
     18  0.281230D-03 -0.152030D-03 -0.542366D-03 -0.443316D-02  0.449108D-02
     19 -0.492595D-02  0.182557D-02  0.165982D-01 -0.489193D-03 -0.629059D-02
     20  0.544945D-02 -0.204536D-02 -0.160206D-01  0.554547D-02  0.900312D-03
     21  0.408129D-03  0.565132D-03  0.920842D-03  0.184912D-02 -0.302234D-02
     22  0.979385D-04  0.410935D-03  0.124891D-02  0.160667D-02 -0.270476D-02
     23 -0.163839D-01  0.129326D-03 -0.174209D-02  0.107833D-02  0.445747D-02
     24 -0.166941D-01 -0.248716D-04 -0.141402D-02  0.835878D-03  0.477506D-02
     25  0.182698D-01  0.956777D-04  0.368011D-03 -0.465638D-02 -0.120285D-02
     26  0.179596D-01 -0.585199D-04  0.696080D-03 -0.489883D-02 -0.885266D-03
                6             7             8             9            10 
      6  0.371418D+00
      7  0.301592D-03  0.371027D+00
      8  0.809177D-03  0.215669D-03  0.175949D+00
      9  0.554650D-02 -0.506312D-02  0.206879D-01  0.166882D+00
     10 -0.165090D-02  0.681495D-03 -0.648068D-02 -0.571641D-01  0.706620D-01
     11 -0.169725D-02  0.108499D-02 -0.755659D-02 -0.580371D-01  0.434647D-02
     12 -0.158186D-02  0.369744D-02 -0.542347D-02 -0.436395D-01 -0.248166D-01
     13 -0.100739D-02  0.106383D-02 -0.470996D-02 -0.373004D-01  0.172860D-01
     14  0.181762D-03 -0.126904D-02  0.270962D-02  0.230586D-01 -0.846458D-02
     15  0.580136D-02 -0.976727D-02  0.441320D-02  0.183412D-01 -0.301544D-02
     16 -0.104855D-01  0.605999D-02 -0.252600D-02 -0.179506D-01  0.200710D-02
     17  0.484609D-02  0.390698D-02 -0.185912D-02 -0.403057D-03  0.989148D-03
     18  0.317693D-03 -0.101917D-02  0.000000D+00  0.229568D-02  0.320016D-02
     19  0.959816D-03  0.677890D-03  0.278431D-02  0.218006D-01 -0.206725D-01
     20 -0.913987D-03  0.214433D-03 -0.266233D-02 -0.218399D-01  0.155120D-01
     21 -0.929273D-03 -0.334376D-03  0.280160D-03 -0.489172D-03  0.187702D-01
     22  0.604757D-03  0.139773D-02  0.273111D-03 -0.657723D-03  0.187475D-01
     23 -0.145370D-02 -0.250501D-03 -0.157614D-02 -0.949391D-02 -0.162968D-01
     24  0.803327D-04  0.148161D-02 -0.158319D-02 -0.966246D-02 -0.163196D-01
     25 -0.127939D-03 -0.154868D-02  0.117071D-02  0.107184D-01 -0.141501D-02
     26  0.140609D-02  0.183431D-03  0.116366D-02  0.105498D-01 -0.143775D-02
               11            12            13            14            15 
     11  0.706423D-01
     12  0.191004D-01  0.730812D-01
     13 -0.251397D-01 -0.246773D-02  0.680225D-01
     14 -0.924082D-02 -0.195385D-01 -0.183449D-01  0.316760D-01
     15 -0.458363D-02 -0.943947D-02 -0.474124D-02  0.271956D-02  0.717704D-01
     16  0.397296D-02  0.114078D-01  0.457131D-02 -0.329918D-02 -0.375991D-01
     17  0.672058D-03 -0.193203D-02  0.829152D-04  0.600188D-03 -0.336987D-01
     18 -0.410726D-02 -0.219426D-01  0.204176D-01  0.246345D-03  0.155064D-02
     19 -0.158325D-01  0.245776D-01  0.369485D-02 -0.142347D-01 -0.195457D-04
     20  0.200662D-01 -0.299455D-02 -0.241861D-01  0.139229D-01 -0.142054D-02
     21 -0.189486D-01 -0.260599D-02  0.309816D-02  0.165246D-03  0.216323D-03
     22 -0.184641D-01 -0.253052D-02  0.254106D-02  0.353601D-03 -0.132031D-03
     23  0.913999D-03  0.101633D-01  0.721309D-02  0.810270D-02 -0.189501D-02
     24  0.139858D-02  0.102388D-01  0.665599D-02  0.829105D-02 -0.224337D-02
     25  0.157571D-01 -0.825379D-02 -0.947734D-02 -0.793909D-02  0.326233D-02
     26  0.162417D-01 -0.817832D-02 -0.100344D-01 -0.775073D-02  0.291398D-02
               16            17            18            19            20 
     16  0.705051D-01
     17 -0.322770D-01  0.649649D-01
     18 -0.238498D-02  0.827592D-03  0.169096D-01
     19  0.125530D-02 -0.121764D-02 -0.687069D-02  0.250194D-01
     20  0.925050D-03  0.565967D-03 -0.717195D-02 -0.154823D-01  0.241008D-01
     21 -0.125415D-03 -0.383319D-03 -0.602160D-02  0.228602D-02  0.218307D-02
     22  0.979802D-03 -0.637091D-03 -0.598917D-02  0.228692D-02  0.270958D-02
     23  0.174544D-02 -0.133937D-03  0.232933D-02 -0.158516D-02 -0.109591D-02
     24  0.285066D-02 -0.387710D-03  0.236176D-02 -0.158426D-02 -0.569402D-03
     25 -0.378106D-02  0.240260D-03  0.298654D-02 -0.111948D-02 -0.187979D-02
     26 -0.267584D-02 -0.135122D-04  0.301897D-02 -0.111858D-02 -0.135329D-02
               21            22            23            24            25 
     21  0.158803D-01
     22  0.139026D-01  0.152380D-01
     23 -0.536376D-02 -0.725259D-02  0.144821D-01
     24 -0.734141D-02 -0.591725D-02  0.125933D-01  0.140175D-01
     25 -0.585329D-02 -0.768504D-02 -0.579728D-02 -0.762902D-02  0.144897D-01
     26 -0.783094D-02 -0.634971D-02 -0.768610D-02 -0.620486D-02  0.126580D-01
               26 
     26  0.141392D-01
 Leave Link  716 at Wed Aug 28 08:07:42 2019, MaxMem=   671088640 cpu:               5.1 elap:               0.7
 (Enter /shared/centos7/gaussian/g16/l103.exe)

 GradGradGradGradGradGradGradGradGradGradGradGradGradGradGradGradGradGrad
 Berny optimization.
 Red2BG is reusing G-inverse.
 Internal  Forces:  Max     0.000038956 RMS     0.000011723
 Search for a local minimum.
 Step number   1 out of a maximum of   36 on scan point     1 out of    37
 All quantities printed in internal units (Hartrees-Bohrs-Radians)
 RMS Force = .12033D-04 SwitMx=.10000D-02 MixMth= 2
 Mixed Optimization -- En-DIIS/RFO-DIIS
 Second derivative matrix not updated -- analytic derivatives used.
 ITU=  0
     Eigenvalues ---    0.00357   0.03869   0.06474   0.07615   0.09635
     Eigenvalues ---    0.10218   0.13262   0.16146   0.23330   0.30531
     Eigenvalues ---    0.31598   0.33277   0.37178   0.37242   0.40791
     Eigenvalues ---    0.548021000.000001000.000001000.000001000.00000
     Eigenvalues --- 1000.000001000.000001000.000001000.000001000.00000
     Eigenvalues --- 1000.00000
 RFO step:  Lambda=-2.28614526D-08 EMin= 3.56879272D-03
 Linear search not attempted -- first point.
 Iteration  1 RMS(Cart)=  0.00016722 RMS(Int)=  0.00000005
 Iteration  2 RMS(Cart)=  0.00000004 RMS(Int)=  0.00000002
 Iteration  1 RMS(Cart)=  0.00000000 RMS(Int)=  0.00000000
 ITry= 1 IFail=0 DXMaxC= 5.58D-04 DCOld= 1.00D+10 DXMaxT= 3.00D-01 DXLimC= 3.00D+00 Rises=F
 Variable       Old X    -DE/DX   Delta X   Delta X   Delta X     New X
                                 (Linear)    (Quad)   (Total)
    R1        2.67605  -0.00004   0.00000  -0.00014  -0.00014   2.67591
    R2        1.81217  -0.00002   0.00000  -0.00003  -0.00003   1.81214
    R3        2.79258  -0.00000   0.00000   0.00002   0.00002   2.79260
    R4        2.07522   0.00001   0.00000   0.00004   0.00004   2.07526
    R5        2.08275   0.00001   0.00000   0.00005   0.00005   2.08280
    R6        2.03744   0.00000   0.00000   0.00002   0.00002   2.03747
    R7        2.03789   0.00000   0.00000   0.00000   0.00000   2.03790
    A1        1.89922  -0.00002   0.00000  -0.00004  -0.00004   1.89917
    A2        1.89840  -0.00001   0.00000   0.00002   0.00002   1.89842
    A3        1.94002   0.00001   0.00000   0.00009   0.00009   1.94011
    A4        1.92496   0.00001   0.00000   0.00014   0.00014   1.92511
    A5        1.92009  -0.00000   0.00000  -0.00009  -0.00009   1.92000
    A6        1.92328  -0.00001   0.00000  -0.00011  -0.00011   1.92316
    A7        1.85711  -0.00000   0.00000  -0.00006  -0.00006   1.85704
    A8        2.10062  -0.00002   0.00000  -0.00023  -0.00023   2.10039
    A9        2.07847   0.00001   0.00000   0.00012   0.00012   2.07859
   A10        2.09126   0.00001   0.00000   0.00002   0.00002   2.09128
    D1        3.04675  -0.00000   0.00000  -0.00003  -0.00003   3.04672
    D2       -1.11985  -0.00001   0.00000  -0.00007  -0.00007  -1.11992
    D3        0.93564   0.00001   0.00000   0.00000   0.00000   0.93564
    D4        2.91752   0.00000   0.00000   0.00046   0.00046   2.91798
    D5       -0.39585  -0.00000   0.00000  -0.00012  -0.00012  -0.39598
    D6        0.78878  -0.00000   0.00000   0.00039   0.00039   0.78917
    D7       -2.52459  -0.00001   0.00000  -0.00020  -0.00020  -2.52479
    D8       -1.25352   0.00001   0.00000   0.00059   0.00059  -1.25294
    D9        1.71629   0.00000   0.00000   0.00000  -0.00000   1.71629
         Item               Value     Threshold  Converged?
 Maximum Force            0.000039     0.000450     YES
 RMS     Force            0.000012     0.000300     YES
 Maximum Displacement     0.000558     0.001800     YES
 RMS     Displacement     0.000167     0.001200     YES
 Predicted change in Energy=-1.143072D-08
 Optimization completed.
    -- Stationary point found.
                           ----------------------------
                           !   Optimized Parameters   !
                           ! (Angstroms and Degrees)  !
 --------------------------                            --------------------------
 ! Name  Definition              Value          Derivative Info.                !
 --------------------------------------------------------------------------------
 ! R1    R(1,2)                  1.4161         -DE/DX =    0.0                 !
 ! R2    R(1,8)                  0.959          -DE/DX =    0.0                 !
 ! R3    R(2,3)                  1.4778         -DE/DX =    0.0                 !
 ! R4    R(2,4)                  1.0982         -DE/DX =    0.0                 !
 ! R5    R(2,5)                  1.1021         -DE/DX =    0.0                 !
 ! R6    R(3,6)                  1.0782         -DE/DX =    0.0                 !
 ! R7    R(3,7)                  1.0784         -DE/DX =    0.0                 !
 ! A1    A(2,1,8)              108.8172         -DE/DX =    0.0                 !
 ! A2    A(1,2,3)              108.7701         -DE/DX =    0.0                 !
 ! A3    A(1,2,4)              111.1549         -DE/DX =    0.0                 !
 ! A4    A(1,2,5)              110.2923         -DE/DX =    0.0                 !
 ! A5    A(3,2,4)              110.0131         -DE/DX =    0.0                 !
 ! A6    A(3,2,5)              110.1955         -DE/DX =    0.0                 !
 ! A7    A(4,2,5)              106.4043         -DE/DX =    0.0                 !
 ! A8    A(2,3,6)              120.3565         -DE/DX =    0.0                 !
 ! A9    A(2,3,7)              119.0875         -DE/DX =    0.0                 !
 ! A10   A(6,3,7)              119.8204         -DE/DX =    0.0                 !
 ! D1    D(8,1,2,3)            174.5661         -DE/DX =    0.0                 !
 ! D2    D(8,1,2,4)            -64.1629         -DE/DX =    0.0                 !
 ! D3    D(8,1,2,5)             53.6084         -DE/DX =    0.0                 !
 ! D4    D(1,2,3,6)            167.1614         -DE/DX =    0.0                 !
 ! D5    D(1,2,3,7)            -22.6807         -DE/DX =    0.0                 !
 ! D6    D(4,2,3,6)             45.1939         -DE/DX =    0.0                 !
 ! D7    D(4,2,3,7)           -144.6483         -DE/DX =    0.0                 !
 ! D8    D(5,2,3,6)            -71.8216         -DE/DX =    0.0                 !
 ! D9    D(5,2,3,7)             98.3363         -DE/DX =    0.0                 !
 --------------------------------------------------------------------------------
 Lowest energy point so far.  Saving SCF results.
 Iteration  1 RMS(Cart)=  0.02136474 RMS(Int)=  0.02241559
 Iteration  2 RMS(Cart)=  0.00137987 RMS(Int)=  0.02239567
 Iteration  3 RMS(Cart)=  0.00007528 RMS(Int)=  0.02239564
 Iteration  4 RMS(Cart)=  0.00000387 RMS(Int)=  0.02239564
 Iteration  5 RMS(Cart)=  0.00000024 RMS(Int)=  0.02239564
 Iteration  1 RMS(Cart)=  0.00948650 RMS(Int)=  0.00968335
 Iteration  2 RMS(Cart)=  0.00420275 RMS(Int)=  0.01077220
 Iteration  3 RMS(Cart)=  0.00188551 RMS(Int)=  0.01185889
 Iteration  4 RMS(Cart)=  0.00086976 RMS(Int)=  0.01244334
 Iteration  5 RMS(Cart)=  0.00041443 RMS(Int)=  0.01273236
 Iteration  6 RMS(Cart)=  0.00020337 RMS(Int)=  0.01287369
 Iteration  7 RMS(Cart)=  0.00010211 RMS(Int)=  0.01294321
 Iteration  8 RMS(Cart)=  0.00005210 RMS(Int)=  0.01297776
 Iteration  9 RMS(Cart)=  0.00002687 RMS(Int)=  0.01299511
 Iteration 10 RMS(Cart)=  0.00001395 RMS(Int)=  0.01300391
 Iteration 11 RMS(Cart)=  0.00000728 RMS(Int)=  0.01300840
 Iteration 12 RMS(Cart)=  0.00000381 RMS(Int)=  0.01301072
 Iteration 13 RMS(Cart)=  0.00000199 RMS(Int)=  0.01301191
 Iteration 14 RMS(Cart)=  0.00000105 RMS(Int)=  0.01301254
 Iteration 15 RMS(Cart)=  0.00000055 RMS(Int)=  0.01301286
 GradGradGradGradGradGradGradGradGradGradGradGradGradGradGradGradGradGrad

 Leave Link  103 at Wed Aug 28 08:08:18 2019, MaxMem=   671088640 cpu:             280.5 elap:              35.7
 (Enter /shared/centos7/gaussian/g16/l202.exe)
                          Input orientation:                          
 ---------------------------------------------------------------------
 Center     Atomic      Atomic             Coordinates (Angstroms)
 Number     Number       Type             X           Y           Z
 ---------------------------------------------------------------------
      1          8           0       -1.225549   -0.176310    0.959060
      2          6           0       -0.209647   -0.490982    0.024059
      3          6           0        0.342131   -1.804913    0.415162
      4          1           0       -0.577681   -0.545107   -1.009218
      5          1           0        0.638660    0.211179    0.076265
      6          1           0        0.992542   -2.344297   -0.254550
      7          1           0        0.211257   -2.148452    1.428978
      8          1           0       -1.590774    0.683394    0.741133
 ---------------------------------------------------------------------
                    Distance matrix (angstroms):
                    1          2          3          4          5
     1  O    0.000000
     2  C    1.416086   0.000000
     3  C    2.325036   1.477780   0.000000
     4  H    2.104724   1.098199   2.112350   0.000000
     5  H    2.098749   1.102443   2.065770   1.797144   0.000000
     6  H    3.330607   2.226580   1.078185   2.504438   2.600986
     7  H    2.484870   2.213180   1.078411   3.022903   2.753246
     8  H    0.959152   1.949581   3.167657   2.366285   2.373902
                    6          7          8
     6  H    0.000000
     7  H    1.866287   0.000000
     8  H    4.102660   3.426340   0.000000
 Stoichiometry    C2H5O(2)
 Framework group  C1[X(C2H5O)]
 Deg. of freedom    18
 Full point group                 C1      NOp   1
 RotChk:  IX=0 Diff= 3.30D-02
 Largest Abelian subgroup         C1      NOp   1
 Largest concise Abelian subgroup C1      NOp   1
                         Standard orientation:                         
 ---------------------------------------------------------------------
 Center     Atomic      Atomic             Coordinates (Angstroms)
 Number     Number       Type             X           Y           Z
 ---------------------------------------------------------------------
      1          8           0       -1.094521   -0.374626   -0.039219
      2          6           0       -0.013027    0.536597    0.033881
      3          6           0        1.227835   -0.263505   -0.028835
      4          1           0       -0.012986    1.270691   -0.782909
      5          1           0        0.025466    1.062978    1.001777
      6          1           0        2.179652    0.218003   -0.185922
      7          1           0        1.191839   -1.309258    0.232077
      8          1           0       -1.916646    0.116045    0.018449
 ---------------------------------------------------------------------
 Rotational constants (GHZ):          39.5744978          10.3283438           8.6855473
 Leave Link  202 at Wed Aug 28 08:08:18 2019, MaxMem=   671088640 cpu:               2.5 elap:               0.4
 (Enter /shared/centos7/gaussian/g16/l301.exe)
 Standard basis: CC-pVTZ (5D, 7F)
 Ernie: Thresh=  0.10000D-02 Tol=  0.10000D-05 Strict=F.
 Ernie:  9 primitive shells out of 118 were deleted.
 There are   180 symmetry adapted cartesian basis functions of A   symmetry.
 There are   160 symmetry adapted basis functions of A   symmetry.
   160 basis functions,   241 primitive gaussians,   180 cartesian basis functions
    13 alpha electrons       12 beta electrons
       nuclear repulsion energy        75.4518536477 Hartrees.
 IExCor= 4336 DFT=T Ex+Corr=M062X ExCW=0 ScaHFX=  0.540000
 ScaDFX=  1.000000  1.000000  1.000000  1.000000 ScalE2=  1.000000  1.000000
 IRadAn=      5 IRanWt=     -1 IRanGd=            0 ICorTp=0 IEmpDi=  4
 NAtoms=    8 NActive=    8 NUniq=    8 SFac= 1.00D+00 NAtFMM=   60 NAOKFM=F Big=F
 Integral buffers will be    131072 words long.
 Raffenetti 2 integral format.
 Two-electron integral symmetry is turned on.
 Leave Link  301 at Wed Aug 28 08:08:19 2019, MaxMem=   671088640 cpu:               3.6 elap:               0.5
 (Enter /shared/centos7/gaussian/g16/l302.exe)
 NPDir=0 NMtPBC=     1 NCelOv=     1 NCel=       1 NClECP=     1 NCelD=      1
         NCelK=      1 NCelE2=     1 NClLst=     1 CellRange=     0.0.
 One-electron integrals computed using PRISM.
 One-electron integral symmetry used in STVInt
 NBasis=   160 RedAO= T EigKep=  9.29D-04  NBF=   160
 NBsUse=   160 1.00D-06 EigRej= -1.00D+00 NBFU=   160
 Precomputing XC quadrature grid using
 IXCGrd= 4 IRadAn=           5 IRanWt=          -1 IRanGd=           0 AccXCQ= 0.00D+00.
 Generated NRdTot=       0 NPtTot=           0 NUsed=           0 NTot=          32
 NSgBfM=   180   180   180   180   180 MxSgAt=     8 MxSgA2=     8.
 Leave Link  302 at Wed Aug 28 08:08:27 2019, MaxMem=   671088640 cpu:              66.9 elap:               8.4
 (Enter /shared/centos7/gaussian/g16/l303.exe)
 DipDrv:  MaxL=1.
 Leave Link  303 at Wed Aug 28 08:08:28 2019, MaxMem=   671088640 cpu:               9.2 elap:               1.2
 (Enter /shared/centos7/gaussian/g16/l401.exe)
 Initial guess from the checkpoint file:  "/scratch/harms.n/gauss_scrdir/Gau-39322.chk"
 B after Tr=     0.000000   -0.000000   -0.000000
         Rot=    0.999977   -0.004561   -0.001838    0.004703 Ang=  -0.78 deg.
 Guess basis will be translated and rotated to current coordinates.
 JPrj=2 DoOrth=T DoCkMO=T.
 Initial guess <Sx>= 0.0000 <Sy>= 0.0000 <Sz>= 0.5000 <S**2>= 0.7552 S= 0.5026
 Generating alternative initial guess.
 ExpMin= 1.03D-01 ExpMax= 1.53D+04 ExpMxC= 5.22D+02 IAcc=2 IRadAn=         4 AccDes= 0.00D+00
 Harris functional with IExCor= 1009 and IRadAn=       4 diagonalized for initial guess.
 HarFok:  IExCor= 1009 AccDes= 0.00D+00 IRadAn=         4 IDoV= 1 UseB2=F ITyADJ=14
 ICtDFT=  3500011 ScaDFX=  1.000000  1.000000  1.000000  1.000000
 FoFCou: FMM=F IPFlag=           0 FMFlag=      100000 FMFlg1=           0
         NFxFlg=           0 DoJE=T BraDBF=F KetDBF=T FulRan=T
         wScrn=  0.000000 ICntrl=       500 IOpCl=  0 I1Cent=   200000004 NGrid=           0
         NMat0=    1 NMatS0=      1 NMatT0=    0 NMatD0=    1 NMtDS0=    0 NMtDT0=    0
 Petite list used in FoFCou.
 Harris En= -154.287536945749    
 Leave Link  401 at Wed Aug 28 08:08:39 2019, MaxMem=   671088640 cpu:              84.2 elap:              10.6
 (Enter /shared/centos7/gaussian/g16/l502.exe)
 Keep R1 and R2 ints in memory in canonical form, NReq=186086596.
 FoFCou: FMM=F IPFlag=           0 FMFlag=           0 FMFlg1=           0
         NFxFlg=           0 DoJE=F BraDBF=F KetDBF=F FulRan=T
         wScrn=  0.000000 ICntrl=       600 IOpCl=  0 I1Cent=           0 NGrid=           0
         NMat0=    1 NMatS0=  12880 NMatT0=    0 NMatD0=    1 NMtDS0=    0 NMtDT0=    0
 Symmetry not used in FoFCou.
 Two-electron integral symmetry not used.
 UHF open shell SCF:
 Using DIIS extrapolation, IDIIS=  1040.
 NGot=   671088640 LenX=   505111240 LenY=   505078399
 Requested convergence on RMS density matrix=1.00D-08 within 128 cycles.
 Requested convergence on MAX density matrix=1.00D-06.
 Requested convergence on             energy=1.00D-06.
 No special actions if energy rises.
 Integral accuracy reduced to 1.0D-05 until final iterations.

 Cycle   1  Pass 0  IDiag  1:
 E= -154.350948014229    
 DIIS: error= 2.32D-03 at cycle   1 NSaved=   1.
 NSaved= 1 IEnMin= 1 EnMin= -154.350948014229     IErMin= 1 ErrMin= 2.32D-03
 ErrMax= 2.32D-03  0.00D+00 EMaxC= 1.00D-01 BMatC= 5.80D-03 BMatP= 5.80D-03
 IDIUse=3 WtCom= 9.77D-01 WtEn= 2.32D-02
 Coeff-Com:  0.100D+01
 Coeff-En:   0.100D+01
 Coeff:      0.100D+01
 Gap=     0.944 Goal=   None    Shift=    0.000
 Gap=     1.028 Goal=   None    Shift=    0.000
 GapD=    0.944 DampG=2.000 DampE=1.000 DampFc=2.0000 IDamp=-1.
 RMSDP=2.28D-04 MaxDP=6.01D-03              OVMax= 1.34D-02

 Cycle   2  Pass 0  IDiag  1:
 E= -154.352296057348     Delta-E=       -0.001348043119 Rises=F Damp=F
 DIIS: error= 3.48D-04 at cycle   2 NSaved=   2.
 NSaved= 2 IEnMin= 2 EnMin= -154.352296057348     IErMin= 2 ErrMin= 3.48D-04
 ErrMax= 3.48D-04  0.00D+00 EMaxC= 1.00D-01 BMatC= 1.22D-04 BMatP= 5.80D-03
 IDIUse=3 WtCom= 9.97D-01 WtEn= 3.48D-03
 Coeff-Com: -0.938D-01 0.109D+01
 Coeff-En:   0.000D+00 0.100D+01
 Coeff:     -0.934D-01 0.109D+01
 Gap=     0.325 Goal=   None    Shift=    0.000
 Gap=     0.349 Goal=   None    Shift=    0.000
 RMSDP=5.45D-05 MaxDP=1.73D-03 DE=-1.35D-03 OVMax= 3.62D-03

 Cycle   3  Pass 0  IDiag  1:
 E= -154.352348043136     Delta-E=       -0.000051985787 Rises=F Damp=F
 DIIS: error= 1.38D-04 at cycle   3 NSaved=   3.
 NSaved= 3 IEnMin= 3 EnMin= -154.352348043136     IErMin= 3 ErrMin= 1.38D-04
 ErrMax= 1.38D-04  0.00D+00 EMaxC= 1.00D-01 BMatC= 1.64D-05 BMatP= 1.22D-04
 IDIUse=3 WtCom= 9.99D-01 WtEn= 1.38D-03
 Coeff-Com: -0.300D-01 0.232D+00 0.798D+00
 Coeff-En:   0.000D+00 0.000D+00 0.100D+01
 Coeff:     -0.300D-01 0.231D+00 0.799D+00
 Gap=     0.324 Goal=   None    Shift=    0.000
 Gap=     0.350 Goal=   None    Shift=    0.000
 RMSDP=1.41D-05 MaxDP=8.24D-04 DE=-5.20D-05 OVMax= 1.03D-03

 Cycle   4  Pass 0  IDiag  1:
 E= -154.352352695580     Delta-E=       -0.000004652445 Rises=F Damp=F
 DIIS: error= 6.95D-05 at cycle   4 NSaved=   4.
 NSaved= 4 IEnMin= 4 EnMin= -154.352352695580     IErMin= 4 ErrMin= 6.95D-05
 ErrMax= 6.95D-05  0.00D+00 EMaxC= 1.00D-01 BMatC= 4.40D-06 BMatP= 1.64D-05
 IDIUse=1 WtCom= 1.00D+00 WtEn= 0.00D+00
 Coeff-Com:  0.482D-02-0.101D+00 0.292D+00 0.804D+00
 Coeff:      0.482D-02-0.101D+00 0.292D+00 0.804D+00
 Gap=     0.324 Goal=   None    Shift=    0.000
 Gap=     0.350 Goal=   None    Shift=    0.000
 RMSDP=7.53D-06 MaxDP=2.35D-04 DE=-4.65D-06 OVMax= 5.00D-04

 Initial convergence to 1.0D-05 achieved.  Increase integral accuracy.
 Cycle   5  Pass 1  IDiag  1:
 E= -154.352347343219     Delta-E=        0.000005352361 Rises=F Damp=F
 DIIS: error= 4.13D-05 at cycle   1 NSaved=   1.
[...]
 ---------------------------------------------------------------------
 Center     Atomic      Atomic             Coordinates (Angstroms)
 Number     Number       Type             X           Y           Z
 ---------------------------------------------------------------------
      1          8           0       -1.102836   -0.376943   -0.048667
      2          6           0       -0.010644    0.520565    0.032910
      3          6           0        1.246593   -0.254081   -0.023118
      4          1           0       -0.037550    1.253041   -0.784868
      5          1           0       -0.059897    1.098446    0.970138
      6          1           0        2.188132    0.246419   -0.182736
      7          1           0        1.233425   -1.295959    0.254889
      8          1           0       -1.917118    0.114695    0.073159
 ---------------------------------------------------------------------
 Rotational constants (GHZ):          40.4281899          10.1284855           8.5718616
 Leave Link  202 at Wed Aug 28 11:59:35 2019, MaxMem=   671088640 cpu:               5.5 elap:               0.7
 (Enter /shared/centos7/gaussian/g16/l601.exe)
 Copying SCF densities to generalized density rwf, IOpCl= 1 IROHF=0.

 **********************************************************************

            Population analysis using the SCF density.

 **********************************************************************

 Orbital symmetries:
 Alpha Orbitals:
       Occupied  (A) (A) (A) (A) (A) (A) (A) (A) (A) (A) (A) (A)
                 (A)
       Virtual   (A) (A) (A) (A) (A) (A) (A) (A) (A) (A) (A) (A)
                 (A) (A) (A) (A) (A) (A) (A) (A) (A) (A) (A) (A)
                 (A) (A) (A) (A) (A) (A) (A) (A) (A) (A) (A) (A)
                 (A) (A) (A) (A) (A) (A) (A) (A) (A) (A) (A) (A)
                 (A) (A) (A) (A) (A) (A) (A) (A) (A) (A) (A) (A)
                 (A) (A) (A) (A) (A) (A) (A) (A) (A) (A) (A) (A)
                 (A) (A) (A) (A) (A) (A) (A) (A) (A) (A) (A) (A)
                 (A) (A) (A) (A) (A) (A) (A) (A) (A) (A) (A) (A)
                 (A) (A) (A) (A) (A) (A) (A) (A) (A) (A) (A) (A)
                 (A) (A) (A) (A) (A) (A) (A) (A) (A) (A) (A) (A)
                 (A) (A) (A) (A) (A) (A) (A) (A) (A) (A) (A) (A)
                 (A) (A) (A) (A) (A) (A) (A) (A) (A) (A) (A) (A)
                 (A) (A) (A)
 Beta  Orbitals:
       Occupied  (A) (A) (A) (A) (A) (A) (A) (A) (A) (A) (A) (A)
       Virtual   (A) (A) (A) (A) (A) (A) (A) (A) (A) (A) (A) (A)
                 (A) (A) (A) (A) (A) (A) (A) (A) (A) (A) (A) (A)
                 (A) (A) (A) (A) (A) (A) (A) (A) (A) (A) (A) (A)
                 (A) (A) (A) (A) (A) (A) (A) (A) (A) (A) (A) (A)
                 (A) (A) (A) (A) (A) (A) (A) (A) (A) (A) (A) (A)
                 (A) (A) (A) (A) (A) (A) (A) (A) (A) (A) (A) (A)
                 (A) (A) (A) (A) (A) (A) (A) (A) (A) (A) (A) (A)
                 (A) (A) (A) (A) (A) (A) (A) (A) (A) (A) (A) (A)
                 (A) (A) (A) (A) (A) (A) (A) (A) (A) (A) (A) (A)
                 (A) (A) (A) (A) (A) (A) (A) (A) (A) (A) (A) (A)
                 (A) (A) (A) (A) (A) (A) (A) (A) (A) (A) (A) (A)
                 (A) (A) (A) (A) (A) (A) (A) (A) (A) (A) (A) (A)
                 (A) (A) (A) (A)
 The electronic state is 2-A.
 Alpha  occ. eigenvalues --  -19.61930 -10.58926 -10.53982  -1.14597  -0.84884
 Alpha  occ. eigenvalues --   -0.69198  -0.60295  -0.53736  -0.48930  -0.46997
 Alpha  occ. eigenvalues --   -0.41573  -0.36213  -0.26096
 Alpha virt. eigenvalues --    0.06518   0.10561   0.12630   0.13840   0.15595
 Alpha virt. eigenvalues --    0.20399   0.23602   0.30582   0.36826   0.37803
 Alpha virt. eigenvalues --    0.39619   0.40827   0.42061   0.45446   0.48295
 Alpha virt. eigenvalues --    0.50418   0.51697   0.52987   0.55669   0.59490
 Alpha virt. eigenvalues --    0.60458   0.62522   0.69970   0.71810   0.73677
 Alpha virt. eigenvalues --    0.79810   0.85878   0.91690   0.94364   1.01299
 Alpha virt. eigenvalues --    1.01787   1.03301   1.06972   1.09638   1.10970
 Alpha virt. eigenvalues --    1.12464   1.16931   1.20655   1.23445   1.27100
 Alpha virt. eigenvalues --    1.29562   1.35456   1.36982   1.37406   1.42681
 Alpha virt. eigenvalues --    1.45673   1.53204   1.59158   1.65664   1.85848
 Alpha virt. eigenvalues --    1.97613   2.03855   2.09004   2.12818   2.17728
 Alpha virt. eigenvalues --    2.18917   2.25022   2.30733   2.40292   2.42082
 Alpha virt. eigenvalues --    2.53474   2.56370   2.58768   2.69813   2.72291
 Alpha virt. eigenvalues --    2.77088   2.82041   2.82420   2.87459   2.89804
 Alpha virt. eigenvalues --    2.90224   2.95084   2.96806   2.99018   3.03548
 Alpha virt. eigenvalues --    3.05197   3.09664   3.10662   3.13464   3.15721
 Alpha virt. eigenvalues --    3.17555   3.31682   3.33513   3.39052   3.39545
 Alpha virt. eigenvalues --    3.40747   3.43139   3.46649   3.52008   3.53884
 Alpha virt. eigenvalues --    3.57506   3.64902   3.68674   3.69440   3.73625
 Alpha virt. eigenvalues --    3.78159   3.82535   3.84483   3.86137   3.89495
 Alpha virt. eigenvalues --    3.91808   3.94572   3.98603   4.00164   4.03039
 Alpha virt. eigenvalues --    4.07618   4.09377   4.16614   4.17624   4.28361
 Alpha virt. eigenvalues --    4.33730   4.39655   4.45457   4.56584   4.66079
 Alpha virt. eigenvalues --    4.68408   4.70060   4.74042   4.77562   4.81997
 Alpha virt. eigenvalues --    4.90483   4.95994   4.97661   5.04805   5.10996
 Alpha virt. eigenvalues --    5.21562   5.33068   5.34878   5.42422   5.49339
 Alpha virt. eigenvalues --    5.54245   5.70743   5.78125   5.86469   5.95343
 Alpha virt. eigenvalues --    6.15138   6.48494   6.64538   6.68729   6.72177
 Alpha virt. eigenvalues --    6.86561   6.93941   7.11132   7.38848  11.46879
 Alpha virt. eigenvalues --   11.98082  12.79077
  Beta  occ. eigenvalues --  -19.61922 -10.58996 -10.53248  -1.14531  -0.82696
  Beta  occ. eigenvalues --   -0.66633  -0.59879  -0.52530  -0.48263  -0.45995
  Beta  occ. eigenvalues --   -0.40967  -0.35483
  Beta virt. eigenvalues --   -0.01246   0.06203   0.10102   0.12477   0.13058
  Beta virt. eigenvalues --    0.15450   0.20144   0.23562   0.29441   0.35436
  Beta virt. eigenvalues --    0.37462   0.39868   0.41017   0.41952   0.44696
  Beta virt. eigenvalues --    0.47998   0.50358   0.52316   0.53826   0.56175
  Beta virt. eigenvalues --    0.59750   0.60856   0.63736   0.69614   0.71551
  Beta virt. eigenvalues --    0.73625   0.79597   0.85204   0.91296   0.94060
  Beta virt. eigenvalues --    1.00110   1.01423   1.03368   1.06798   1.09293
  Beta virt. eigenvalues --    1.11541   1.12516   1.17464   1.20827   1.23095
  Beta virt. eigenvalues --    1.27543   1.29809   1.35176   1.37236   1.37954
  Beta virt. eigenvalues --    1.42825   1.45741   1.54743   1.59056   1.67060
  Beta virt. eigenvalues --    1.86336   1.98120   2.03761   2.08993   2.13205
  Beta virt. eigenvalues --    2.19539   2.23091   2.26972   2.31224   2.40911
  Beta virt. eigenvalues --    2.43555   2.55921   2.58291   2.61440   2.72085
  Beta virt. eigenvalues --    2.76185   2.80312   2.84298   2.85545   2.90446
  Beta virt. eigenvalues --    2.91288   2.92917   2.97022   2.98074   3.00918
  Beta virt. eigenvalues --    3.06921   3.08324   3.11972   3.13345   3.14749
  Beta virt. eigenvalues --    3.16844   3.18282   3.32489   3.34585   3.40061
  Beta virt. eigenvalues --    3.40958   3.41599   3.43705   3.47537   3.52690
  Beta virt. eigenvalues --    3.54973   3.58571   3.65286   3.69186   3.70154
  Beta virt. eigenvalues --    3.74581   3.78993   3.83050   3.84825   3.86581
  Beta virt. eigenvalues --    3.90784   3.92622   3.95409   3.99696   4.00776
  Beta virt. eigenvalues --    4.04238   4.08681   4.09675   4.17691   4.18741
  Beta virt. eigenvalues --    4.29808   4.34950   4.40361   4.46577   4.58992
  Beta virt. eigenvalues --    4.68079   4.69650   4.71605   4.75801   4.80983
  Beta virt. eigenvalues --    4.84709   4.93884   4.97388   5.00470   5.07181
  Beta virt. eigenvalues --    5.14431   5.22199   5.34690   5.38713   5.46835
  Beta virt. eigenvalues --    5.53331   5.55908   5.75487   5.78857   5.88537
  Beta virt. eigenvalues --    5.95566   6.15599   6.48524   6.64553   6.68942
  Beta virt. eigenvalues --    6.72207   6.86589   6.93894   7.11168   7.38891
  Beta virt. eigenvalues --   11.47054  11.98694  12.80021
          Condensed to atoms (all electrons):
               1          2          3          4          5          6
     1  O    7.868889   0.339232  -0.053074  -0.048273  -0.056493   0.003149
     2  C    0.339232   4.636042   0.299584   0.396823   0.403083  -0.041311
     3  C   -0.053074   0.299584   5.480093  -0.052553  -0.059498   0.389020
     4  H   -0.048273   0.396823  -0.052553   0.717133  -0.091199  -0.001288
     5  H   -0.056493   0.403083  -0.059498  -0.091199   0.731161   0.001883
     6  H    0.003149  -0.041311   0.389020  -0.001288   0.001883   0.519057
     7  H    0.005686  -0.038641   0.383828   0.007556  -0.000642  -0.030601
     8  H    0.324592  -0.033315   0.009202  -0.006141  -0.006418  -0.000661
               7          8
     1  O    0.005686   0.324592
     2  C   -0.038641  -0.033315
     3  C    0.383828   0.009202
     4  H    0.007556  -0.006141
     5  H   -0.000642  -0.006418
     6  H   -0.030601  -0.000661
     7  H    0.493179  -0.000448
     8  H   -0.000448   0.468286
          Atomic-Atomic Spin Densities.
               1          2          3          4          5          6
     1  O    0.008762   0.000558  -0.000706   0.004102  -0.005875  -0.000119
     2  C    0.000558  -0.073587  -0.037416   0.012406   0.018756   0.003077
     3  C   -0.000706  -0.037416   1.162078  -0.021741  -0.037645  -0.001718
     4  H    0.004102   0.012406  -0.021741   0.058525  -0.021623   0.001171
     5  H   -0.005875   0.018756  -0.037645  -0.021623   0.100931  -0.000912
     6  H   -0.000119   0.003077  -0.001718   0.001171  -0.000912  -0.047847
     7  H    0.000847   0.004143  -0.004526   0.000194  -0.000939   0.004178
     8  H   -0.002122   0.000595   0.000668  -0.001262   0.002754   0.000017
               7          8
     1  O    0.000847  -0.002122
     2  C    0.004143   0.000595
     3  C   -0.004526   0.000668
     4  H    0.000194  -0.001262
     5  H   -0.000939   0.002754
     6  H    0.004178   0.000017
     7  H   -0.042628  -0.000071
     8  H   -0.000071   0.000180
 Mulliken charges and spin densities:
               1          2
     1  O   -0.383707   0.005447
     2  C    0.038504  -0.071467
     3  C   -0.396601   1.058995
     4  H    0.077942   0.031774
     5  H    0.078122   0.055447
     6  H    0.160753  -0.042152
     7  H    0.180084  -0.038801
     8  H    0.244903   0.000759
 Sum of Mulliken charges =  -0.00000   1.00000
 Mulliken charges and spin densities with hydrogens summed into heavy atoms:
               1          2
     1  O   -0.138804   0.006205
     2  C    0.194568   0.015753
     3  C   -0.055764   0.978041
 Electronic spatial extent (au):  <R**2>=            178.8927
 Charge=             -0.0000 electrons
 Dipole moment (field-independent basis, Debye):
    X=             -0.2911    Y=              1.6752    Z=              0.3857  Tot=              1.7435
 Quadrupole moment (field-independent basis, Debye-Ang):
   XX=            -16.2081   YY=            -19.3946   ZZ=            -20.5048
   XY=             -1.7623   XZ=             -0.4787   YZ=             -0.4173
 Traceless Quadrupole moment (field-independent basis, Debye-Ang):
   XX=              2.4944   YY=             -0.6921   ZZ=             -1.8023
   XY=             -1.7623   XZ=             -0.4787   YZ=             -0.4173
 Octapole moment (field-independent basis, Debye-Ang**2):
  XXX=            -13.9974  YYY=             -1.4098  ZZZ=              0.3179  XYY=             -0.7223
  XXY=              2.8660  XXZ=              0.3562  XZZ=             -2.9842  YZZ=              0.8398
  YYZ=              0.3343  XYZ=             -0.4978
 Hexadecapole moment (field-independent basis, Debye-Ang**3):
 XXXX=           -122.1882 YYYY=            -54.1526 ZZZZ=            -28.8130 XXXY=              0.5736
 XXXZ=             -2.7418 YYYX=             -0.3295 YYYZ=             -1.2304 ZZZX=              0.1299
 ZZZY=             -0.1781 XXYY=            -34.2817 XXZZ=            -32.5549 YYZZ=            -13.6155
 XXYZ=             -0.7704 YYXZ=              0.5660 ZZXY=              0.6045
 N-N= 7.528082157088D+01 E-N=-5.115803393035D+02  KE= 1.535351788625D+02
                          Isotropic Fermi Contact Couplings
        Atom                 a.u.       MegaHertz       Gauss      10(-4) cm-1
     1  O(17)              0.01014      -6.14380      -2.19226      -2.04935
     2  C(13)             -0.03593     -40.39291     -14.41319     -13.47362
     3  C(13)              0.18733     210.59016      75.14380      70.24531
     4  H(1)               0.01565      69.93194      24.95345      23.32678
     5  H(1)               0.02747     122.78138      43.81145      40.95546
     6  H(1)              -0.01607     -71.81550     -25.62556     -23.95507
     7  H(1)              -0.01585     -70.84762     -25.28019     -23.63222
     8  H(1)              -0.00026      -1.17444      -0.41907      -0.39175
 --------------------------------------------------------
       Center         ----  Spin Dipole Couplings  ----
                      3XX-RR        3YY-RR        3ZZ-RR
 --------------------------------------------------------
     1   Atom        0.023369     -0.006955     -0.016414
     2   Atom        0.003282     -0.011238      0.007956
     3   Atom       -0.531764     -0.481536      1.013301
     4   Atom        0.000694      0.005878     -0.006572
     5   Atom        0.002599      0.001351     -0.003950
     6   Atom        0.041310     -0.036681     -0.004628
     7   Atom       -0.072311      0.070853      0.001459
     8   Atom        0.007652     -0.003705     -0.003948
 --------------------------------------------------------
                        XY            XZ            YZ
 --------------------------------------------------------
     1   Atom        0.013303      0.002959      0.008719
     2   Atom       -0.006110     -0.008966     -0.000002
     3   Atom        0.040356      0.176308      0.323665
     4   Atom       -0.013315      0.006173     -0.007116
     5   Atom       -0.010688     -0.005038      0.010263
     6   Atom        0.063444     -0.011512      0.004037
     7   Atom        0.004773      0.006995     -0.021520
     8   Atom       -0.000386      0.000055      0.000628
 --------------------------------------------------------


 ---------------------------------------------------------------------------------
              Anisotropic Spin Dipole Couplings in Principal Axis System
 ---------------------------------------------------------------------------------

       Atom             a.u.   MegaHertz   Gauss  10(-4) cm-1        Axes

              Baa    -0.0221     1.599     0.570     0.533  0.1135 -0.5689  0.8145
     1 O(17)  Bbb    -0.0071     0.511     0.182     0.170 -0.3760  0.7343  0.5652
              Bcc     0.0291    -2.109    -0.753    -0.704  0.9196  0.3704  0.1306
 
              Baa    -0.0140    -1.876    -0.670    -0.626  0.4042  0.8996  0.1653
     2 C(13)  Bbb    -0.0014    -0.195    -0.069    -0.065  0.6596 -0.4118  0.6287
              Bcc     0.0154     2.071     0.739     0.691 -0.6337  0.1451  0.7599
 
              Baa    -0.5542   -74.375   -26.539   -24.809  0.8299 -0.5575  0.0218
     3 C(13)  Bbb    -0.5462   -73.289   -26.151   -24.447  0.5470  0.8052 -0.2290
              Bcc     1.1004   147.664    52.690    49.255  0.1101  0.2019  0.9732
 
              Baa    -0.0104    -5.539    -1.977    -1.848  0.7884  0.4741 -0.3919
     4 H(1)   Bbb    -0.0098    -5.222    -1.863    -1.742  0.1271  0.4978  0.8579
              Bcc     0.0202    10.761     3.840     3.589 -0.6019  0.7262 -0.3322
 
              Baa    -0.0126    -6.732    -2.402    -2.246  0.2671  0.6949 -0.6676
     5 H(1)   Bbb    -0.0054    -2.894    -1.033    -0.965  0.7516  0.2834  0.5956
              Bcc     0.0180     9.626     3.435     3.211 -0.6031  0.6609  0.4466
 
              Baa    -0.0734   -39.151   -13.970   -13.060 -0.4899  0.8616 -0.1326
     6 H(1)   Bbb    -0.0042    -2.243    -0.800    -0.748  0.0211  0.1638  0.9863
              Bcc     0.0776    41.395    14.771    13.808  0.8715  0.4804 -0.0984
 
              Baa    -0.0733   -39.109   -13.955   -13.045  0.9931 -0.0489 -0.1070
     7 H(1)   Bbb    -0.0037    -1.992    -0.711    -0.664  0.1162  0.2685  0.9563
              Bcc     0.0770    41.101    14.666    13.710  0.0180  0.9620 -0.2723
 
              Baa    -0.0045    -2.386    -0.852    -0.796 -0.0238 -0.6401  0.7679
     8 H(1)   Bbb    -0.0032    -1.703    -0.608    -0.568  0.0241  0.7675  0.6405
              Bcc     0.0077     4.090     1.459     1.364  0.9994 -0.0337  0.0029
 

 ---------------------------------------------------------------------------------

 No NMR shielding tensors so no spin-rotation constants.
 Leave Link  601 at Wed Aug 28 11:59:42 2019, MaxMem=   671088640 cpu:              54.7 elap:               6.9
 (Enter /shared/centos7/gaussian/g16/l9999.exe)
 1\1\GINC-C0236\Scan\UM062X\CC-pVTZ\C2H5O1(2)\HARMS.N\28-Aug-2019\0\\#p
  m062x/cc-pVTZ Opt=(CalcFC,ModRedun)\\Gaussian input prepared by ASE\\
 0,2\O,-1.2683039386,-0.1701123899,0.8938357659\C,-0.1247632599,-0.4639
 276,0.1121410642\C,0.2068311494,-1.8949380137,0.2737401119\H,-0.299900
 9089,-0.2360731315,-0.9477723393\H,0.7256749979,0.161665017,0.42861516
 98\H,0.9121246224,-2.3689617626,-0.3898376897\H,-0.1370361592,-2.41692
 43642,1.152521998\H,-1.4336881796,0.7737851431,0.8576442342\\Version=E
 M64L-G16RevA.03\State=2-A\HF=-154.3535808,-154.3534799,-154.353212,-15
 4.352835,-154.3524423,-154.352148,-154.3520556,-154.3522244,-154.35264
 57,-154.3532433,-154.3538933,-154.3544619,-154.3548337,-154.354929,-15
 4.3547205,-154.3542468,-154.3536066,-154.3529486,-154.3524348,-154.352
 1823,-154.3522216,-154.3524854,-154.3528466,-154.3531678,-154.3533472,
 -154.3533347,-154.3531479,-154.3528548,-154.3525507,-154.3523291,-154.
 3522562,-154.3523549,-154.3526012,-154.3529313,-154.3532592,-154.35349
 79,-154.3535808\S2=0.7552,0.755177,0.755157,0.755143,0.755136,0.755135
 ,0.755138,0.755143,0.755148,0.755156,0.755165,0.755176,0.75519,0.75520
 6,0.755222,0.755239,0.755252,0.755261,0.755261,0.755257,0.755245,0.755
 231,0.755217,0.755206,0.755199,0.755199,0.755204,0.755214,0.755228,0.7
 55243,0.755256,0.755265,0.755266,0.755258,0.755243,0.755222,0.7552\S2-
 1=0.,0.,0.,0.,0.,0.,0.,0.,0.,0.,0.,0.,0.,0.,0.,0.,0.,0.,0.,0.,0.,0.,0.
 ,0.,0.,0.,0.,0.,0.,0.,0.,0.,0.,0.,0.,0.,0.\S2A=0.750021,0.750021,0.750
 021,0.75002,0.75002,0.75002,0.75002,0.75002,0.750021,0.750021,0.750021
 ,0.750021,0.750021,0.750021,0.750021,0.750022,0.750022,0.750022,0.7500
 22,0.750022,0.750022,0.750021,0.750021,0.750021,0.750021,0.750021,0.75
 0021,0.750021,0.750021,0.750021,0.750022,0.750022,0.750022,0.750022,0.
 750021,0.750021,0.750021\RMSD=7.085e-09,3.278e-09,2.870e-09,3.188e-09,
 2.862e-09,3.979e-09,4.398e-09,3.634e-09,4.003e-09,8.319e-09,8.547e-09,
 6.112e-09,4.353e-09,6.746e-09,4.180e-09,5.286e-09,5.621e-09,8.413e-09,
 8.338e-09,3.361e-09,3.788e-09,3.686e-09,2.442e-09,5.839e-09,4.870e-09,
 5.143e-09,6.296e-09,1.839e-09,5.195e-09,7.769e-09,5.919e-09,5.281e-09,
 9.819e-09,3.030e-09,6.507e-09,3.493e-09,7.900e-09\PG=C01 [X(C2H5O1)]\\
 @


 WAR ES EIN GOTT DER DIESE ZEICHEN SCHRIEB?
          - LUDWIG BOLTZMANN, QUOTING GOETHE, ABOUT MAXWELL'S EQUATIONS.
 Job cpu time:       1 days  7 hours  8 minutes 57.9 seconds.
 Elapsed time:       0 days  3 hours 59 minutes 33.1 seconds.
 File lengths (MBytes):  RWF=    272 Int=      0 D2E=      0 Chk=     32 Scr=     32
 Normal termination of Gaussian 16 at Wed Aug 28 11:59:42 2019.
