 Entering Gaussian System, Link 0=g16
 Input=/scratch/harms.n/autotst-2.0-QMScratch/species/OO/rotors/OO_36by10_0_1.com
 Output=/scratch/harms.n/autotst-2.0-QMScratch/species/OO/rotors/OO_36by10_0_1.log
 Initial command:
 /shared/centos7/gaussian/g16/l1.exe "/scratch/harms.n/gauss_scrdir/Gau-27303.inp" -scrdir="/scratch/harms.n/gauss_scrdir/"
 Entering Link 1 = /shared/centos7/gaussian/g16/l1.exe PID=     27304.
  
 Copyright (c) 1988,1990,1992,1993,1995,1998,2003,2009,2016,
            Gaussian, Inc.  All Rights Reserved.
  
 This is part of the Gaussian(R) 16 program.  It is based on
 the Gaussian(R) 09 system (copyright 2009, Gaussian, Inc.),
 the Gaussian(R) 03 system (copyright 2003, Gaussian, Inc.),
 the Gaussian(R) 98 system (copyright 1998, Gaussian, Inc.),
 the Gaussian(R) 94 system (copyright 1995, Gaussian, Inc.),
 the Gaussian 92(TM) system (copyright 1992, Gaussian, Inc.),
 the Gaussian 90(TM) system (copyright 1990, Gaussian, Inc.),
 the Gaussian 88(TM) system (copyright 1988, Gaussian, Inc.),
 the Gaussian 86(TM) system (copyright 1986, Carnegie Mellon
 University), and the Gaussian 82(TM) system (copyright 1983,
 Carnegie Mellon University). Gaussian is a federally registered
 trademark of Gaussian, Inc.
  
 This software contains proprietary and confidential information,
 including trade secrets, belonging to Gaussian, Inc.
  
 This software is provided under written license and may be
 used, copied, transmitted, or stored only in accord with that
 written license.
  
 The following legend is applicable only to US Government
 contracts under FAR:
  
                    RESTRICTED RIGHTS LEGEND
  
 Use, reproduction and disclosure by the US Government is
 subject to restrictions as set forth in subparagraphs (a)
 and (c) of the Commercial Computer Software - Restricted
 Rights clause in FAR 52.227-19.
  
 Gaussian, Inc.
 340 Quinnipiac St., Bldg. 40, Wallingford CT 06492
  
  
 ---------------------------------------------------------------
 Warning -- This program may not be used in any manner that
 competes with the business of Gaussian, Inc. or will provide
 assistance to any competitor of Gaussian, Inc.  The licensee
 of this program is prohibited from giving any competitor of
 Gaussian, Inc. access to this program.  By using this program,
 the user acknowledges that Gaussian, Inc. is engaged in the
 business of creating and licensing software in the field of
 computational chemistry and represents and warrants to the
 licensee that it is not a competitor of Gaussian, Inc. and that
 it will not use this program in any manner prohibited above.
 ---------------------------------------------------------------
  

 Cite this work as:
 Gaussian 16, Revision A.03,
 M. J. Frisch, G. W. Trucks, H. B. Schlegel, G. E. Scuseria, 
 M. A. Robb, J. R. Cheeseman, G. Scalmani, V. Barone, 
 G. A. Petersson, H. Nakatsuji, X. Li, M. Caricato, A. V. Marenich, 
 J. Bloino, B. G. Janesko, R. Gomperts, B. Mennucci, H. P. Hratchian, 
 J. V. Ortiz, A. F. Izmaylov, J. L. Sonnenberg, D. Williams-Young, 
 F. Ding, F. Lipparini, F. Egidi, J. Goings, B. Peng, A. Petrone, 
 T. Henderson, D. Ranasinghe, V. G. Zakrzewski, J. Gao, N. Rega, 
 G. Zheng, W. Liang, M. Hada, M. Ehara, K. Toyota, R. Fukuda, 
 J. Hasegawa, M. Ishida, T. Nakajima, Y. Honda, O. Kitao, H. Nakai, 
 T. Vreven, K. Throssell, J. A. Montgomery, Jr., J. E. Peralta, 
 F. Ogliaro, M. J. Bearpark, J. J. Heyd, E. N. Brothers, K. N. Kudin, 
 V. N. Staroverov, T. A. Keith, R. Kobayashi, J. Normand, 
 K. Raghavachari, A. P. Rendell, J. C. Burant, S. S. Iyengar, 
 J. Tomasi, M. Cossi, J. M. Millam, M. Klene, C. Adamo, R. Cammi, 
 J. W. Ochterski, R. L. Martin, K. Morokuma, O. Farkas, 
 J. B. Foresman, and D. J. Fox, Gaussian, Inc., Wallingford CT, 2016.
 
 ******************************************
 Gaussian 16:  EM64L-G16RevA.03 25-Dec-2016
                 9-Aug-2019 
 ******************************************
 %nprocshared=20
 Will use up to   20 processors via shared memory.
 %mem=5GB
 --------------------------------------
 #p m062x/cc-pVTZ Opt=(CalcFC,ModRedun)
 --------------------------------------
 1/10=4,18=120,19=15,26=3,38=1/1,3;
 2/9=110,12=2,17=6,18=5,40=1/2;
 3/5=16,6=1,11=2,25=1,30=1,71=2,74=-55,140=1/1,2,3;
 4//1;
 5/5=2,38=5/2;
 8/6=4,10=90,11=11/1;
 11/6=1,8=1,9=11,15=111,16=1/1,2,10;
 10/6=1,13=1/2;
 6/7=2,8=2,9=2,10=2,28=1/1;
 7/10=1,18=20,25=1/1,2,3,16;
 1/10=4,18=20,19=15,26=3/3(2);
 2/9=110/2;
 99//99;
 2/9=110/2;
 3/5=16,6=1,11=2,25=1,30=1,71=1,74=-55/1,2,3;
 4/5=5,16=3,69=1/1;
 5/5=2,38=5/2;
 7//1,2,3,16;
 1/18=20,19=15,26=3/3(-5);
 2/9=110/2;
 6/7=2,8=2,9=2,10=2,19=2,28=1/1;
 99/9=1/99;
 Leave Link    1 at Fri Aug  9 22:46:48 2019, MaxMem=   671088640 cpu:              27.0 elap:               1.4
 (Enter /shared/centos7/gaussian/g16/l101.exe)
 ------------------------------
 Gaussian input prepared by ASE
 ------------------------------
 Symbolic Z-matrix:
 Charge =  0 Multiplicity = 1
 O                    -0.54059   0.46715   0.05115 
 O                     0.57233  -0.42018   0.01702 
 H                    -1.27622  -0.1504   -0.02334 
 H                     0.91661  -0.32501   0.91171 
 
 The following ModRedundant input section has been read:
 B       1       3 B                                                           
 B       1       2 B                                                           
 B       2       4 B                                                           
 D       3       1       2       4 S  36 10.000                                
 
 ITRead=  0  0  0  0
 MicOpt= -1 -1 -1 -1
 NAtoms=      4 NQM=        4 NQMF=       0 NMMI=      0 NMMIF=      0
                NMic=       0 NMicF=      0.
                    Isotopes and Nuclear Properties:
 (Nuclear quadrupole moments (NQMom) in fm**2, nuclear magnetic moments (NMagM)
  in nuclear magnetons)

  Atom         1           2           3           4
 IAtWgt=          16          16           1           1
 AtmWgt=  15.9949146  15.9949146   1.0078250   1.0078250
 NucSpn=           0           0           1           1
 AtZEff=  -0.0000000  -0.0000000  -0.0000000  -0.0000000
 NQMom=    0.0000000   0.0000000   0.0000000   0.0000000
 NMagM=    0.0000000   0.0000000   2.7928460   2.7928460
 AtZNuc=   8.0000000   8.0000000   1.0000000   1.0000000
 Leave Link  101 at Fri Aug  9 22:46:49 2019, MaxMem=   671088640 cpu:               3.0 elap:               0.2
 (Enter /shared/centos7/gaussian/g16/l103.exe)

 GradGradGradGradGradGradGradGradGradGradGradGradGradGradGradGradGradGrad
 Berny optimization.
 Initialization pass.
                           ----------------------------
                           !    Initial Parameters    !
                           ! (Angstroms and Degrees)  !
 --------------------------                            --------------------------
 ! Name  Definition              Value          Derivative Info.                !
 --------------------------------------------------------------------------------
 ! R1    R(1,2)                  1.4238         calculate D2E/DX2 analytically  !
 ! R2    R(1,3)                  0.9634         calculate D2E/DX2 analytically  !
 ! R3    R(2,4)                  0.9634         calculate D2E/DX2 analytically  !
 ! A1    A(2,1,3)              101.2758         calculate D2E/DX2 analytically  !
 ! A2    A(1,2,4)              101.2755         calculate D2E/DX2 analytically  !
 ! D1    D(3,1,2,4)           -112.6123         Scan                            !
 --------------------------------------------------------------------------------
 Trust Radius=3.00D-01 FncErr=1.00D-07 GrdErr=1.00D-06 EigMax=2.50D+02 EigMin=1.00D-04
 Number of optimizations in scan=  37
 Number of steps in this run=     20 maximum allowed number of steps=    100.
 GradGradGradGradGradGradGradGradGradGradGradGradGradGradGradGradGradGrad

 Leave Link  103 at Fri Aug  9 22:46:49 2019, MaxMem=   671088640 cpu:               0.4 elap:               0.0
 (Enter /shared/centos7/gaussian/g16/l202.exe)
                          Input orientation:                          
 ---------------------------------------------------------------------
 Center     Atomic      Atomic             Coordinates (Angstroms)
 Number     Number       Type             X           Y           Z
 ---------------------------------------------------------------------
      1          8           0       -0.540595    0.467153    0.051149
      2          8           0        0.572333   -0.420175    0.017021
      3          1           0       -1.276225   -0.150396   -0.023338
      4          1           0        0.916610   -0.325013    0.911706
 ---------------------------------------------------------------------
                    Distance matrix (angstroms):
                    1          2          3          4
     1  O    0.000000
     2  O    1.423771   0.000000
     3  H    0.963362   1.868575   0.000000
     4  H    1.868563   0.963350   2.390256   0.000000
 Stoichiometry    H2O2
 Framework group  C1[X(H2O2)]
 Deg. of freedom     6
 Full point group                 C1      NOp   1
 Largest Abelian subgroup         C1      NOp   1
 Largest concise Abelian subgroup C1      NOp   1
                         Standard orientation:                         
 ---------------------------------------------------------------------
 Center     Atomic      Atomic             Coordinates (Angstroms)
 Number     Number       Type             X           Y           Z
 ---------------------------------------------------------------------
      1          8           0        0.702696   -0.114009   -0.058234
      2          8           0       -0.702697    0.114007   -0.058235
      3          1           0        1.014520    0.631745    0.465869
      4          1           0       -1.014511   -0.631724    0.465884
 ---------------------------------------------------------------------
 Rotational constants (GHZ):         307.2906620          27.3355994          26.4723260
 Leave Link  202 at Fri Aug  9 22:46:49 2019, MaxMem=   671088640 cpu:               0.5 elap:               0.1
 (Enter /shared/centos7/gaussian/g16/l301.exe)
 Standard basis: CC-pVTZ (5D, 7F)
 Ernie: Thresh=  0.10000D-02 Tol=  0.10000D-05 Strict=F.
 Ernie:  6 primitive shells out of 68 were deleted.
 There are   100 symmetry adapted cartesian basis functions of A   symmetry.
 There are    88 symmetry adapted basis functions of A   symmetry.
    88 basis functions,   138 primitive gaussians,   100 cartesian basis functions
     9 alpha electrons        9 beta electrons
       nuclear repulsion energy        37.3285455302 Hartrees.
 IExCor= 4336 DFT=T Ex+Corr=M062X ExCW=0 ScaHFX=  0.540000
 ScaDFX=  1.000000  1.000000  1.000000  1.000000 ScalE2=  1.000000  1.000000
 IRadAn=      5 IRanWt=     -1 IRanGd=            0 ICorTp=0 IEmpDi=  4
 NAtoms=    4 NActive=    4 NUniq=    4 SFac= 1.00D+00 NAtFMM=   60 NAOKFM=F Big=F
 Integral buffers will be    131072 words long.
 Raffenetti 2 integral format.
 Two-electron integral symmetry is turned on.
 Leave Link  301 at Fri Aug  9 22:46:49 2019, MaxMem=   671088640 cpu:               1.1 elap:               0.1
 (Enter /shared/centos7/gaussian/g16/l302.exe)
 NPDir=0 NMtPBC=     1 NCelOv=     1 NCel=       1 NClECP=     1 NCelD=      1
         NCelK=      1 NCelE2=     1 NClLst=     1 CellRange=     0.0.
 One-electron integrals computed using PRISM.
 One-electron integral symmetry used in STVInt
 NBasis=    88 RedAO= T EigKep=  2.92D-03  NBF=    88
 NBsUse=    88 1.00D-06 EigRej= -1.00D+00 NBFU=    88
 Precomputing XC quadrature grid using
 IXCGrd= 4 IRadAn=           5 IRanWt=          -1 IRanGd=           0 AccXCQ= 0.00D+00.
 Generated NRdTot=       0 NPtTot=           0 NUsed=           0 NTot=          32
 NSgBfM=   100   100   100   100   100 MxSgAt=     4 MxSgA2=     4.
 Leave Link  302 at Fri Aug  9 22:46:49 2019, MaxMem=   671088640 cpu:               3.8 elap:               0.2
 (Enter /shared/centos7/gaussian/g16/l303.exe)
 DipDrv:  MaxL=1.
 Leave Link  303 at Fri Aug  9 22:46:49 2019, MaxMem=   671088640 cpu:               0.4 elap:               0.0
 (Enter /shared/centos7/gaussian/g16/l401.exe)
 ExpMin= 1.03D-01 ExpMax= 1.53D+04 ExpMxC= 5.22D+02 IAcc=3 IRadAn=         5 AccDes= 0.00D+00
 Harris functional with IExCor= 1009 and IRadAn=       5 diagonalized for initial guess.
 HarFok:  IExCor= 1009 AccDes= 0.00D+00 IRadAn=         5 IDoV= 1 UseB2=F ITyADJ=14
 ICtDFT=  3500011 ScaDFX=  1.000000  1.000000  1.000000  1.000000
 FoFCou: FMM=F IPFlag=           0 FMFlag=      100000 FMFlg1=           0
         NFxFlg=           0 DoJE=T BraDBF=F KetDBF=T FulRan=T
         wScrn=  0.000000 ICntrl=       500 IOpCl=  0 I1Cent=   200000004 NGrid=           0
         NMat0=    1 NMatS0=      1 NMatT0=    0 NMatD0=    1 NMtDS0=    0 NMtDT0=    0
 Petite list used in FoFCou.
 Harris En= -151.488751304154    
 JPrj=0 DoOrth=F DoCkMO=F.
 Leave Link  401 at Fri Aug  9 22:46:49 2019, MaxMem=   671088640 cpu:               6.7 elap:               0.4
 (Enter /shared/centos7/gaussian/g16/l502.exe)
 Keep R1 ints in memory in canonical form, NReq=26188250.
 FoFCou: FMM=F IPFlag=           0 FMFlag=           0 FMFlg1=           0
         NFxFlg=           0 DoJE=F BraDBF=F KetDBF=F FulRan=T
         wScrn=  0.000000 ICntrl=       600 IOpCl=  0 I1Cent=           0 NGrid=           0
         NMat0=    1 NMatS0=   3916 NMatT0=    0 NMatD0=    1 NMtDS0=    0 NMtDT0=    0
 Symmetry not used in FoFCou.
 Two-electron integral symmetry not used.
 Closed shell SCF:
 Using DIIS extrapolation, IDIIS=  1040.
 NGot=   671088640 LenX=   663396154 LenY=   663385713
 Requested convergence on RMS density matrix=1.00D-08 within 128 cycles.
 Requested convergence on MAX density matrix=1.00D-06.
 Requested convergence on             energy=1.00D-06.
 No special actions if energy rises.
 Integral accuracy reduced to 1.0D-05 until final iterations.

 Cycle   1  Pass 0  IDiag  1:
 E= -151.509034727424    
 DIIS: error= 2.90D-02 at cycle   1 NSaved=   1.
 NSaved= 1 IEnMin= 1 EnMin= -151.509034727424     IErMin= 1 ErrMin= 2.90D-02
 ErrMax= 2.90D-02  0.00D+00 EMaxC= 1.00D-01 BMatC= 7.74D-02 BMatP= 7.74D-02
 IDIUse=3 WtCom= 7.10D-01 WtEn= 2.90D-01
 Coeff-Com:  0.100D+01
 Coeff-En:   0.100D+01
 Coeff:      0.100D+01
 Gap=     0.474 Goal=   None    Shift=    0.000
 GapD=    0.474 DampG=2.000 DampE=0.500 DampFc=1.0000 IDamp=-1.
 RMSDP=2.37D-03 MaxDP=4.64D-02              OVMax= 7.68D-02

 Cycle   2  Pass 0  IDiag  1:
 E= -151.523331224362     Delta-E=       -0.014296496938 Rises=F Damp=F
 DIIS: error= 1.92D-02 at cycle   2 NSaved=   2.
 NSaved= 2 IEnMin= 2 EnMin= -151.523331224362     IErMin= 2 ErrMin= 1.92D-02
 ErrMax= 1.92D-02  0.00D+00 EMaxC= 1.00D-01 BMatC= 4.15D-02 BMatP= 7.74D-02
 IDIUse=3 WtCom= 8.08D-01 WtEn= 1.92D-01
 Coeff-Com:  0.412D+00 0.588D+00
 Coeff-En:   0.367D+00 0.633D+00
 Coeff:      0.403D+00 0.597D+00
 Gap=     0.441 Goal=   None    Shift=    0.000
 RMSDP=1.20D-03 MaxDP=2.18D-02 DE=-1.43D-02 OVMax= 3.73D-02

 Cycle   3  Pass 0  IDiag  1:
 E= -151.548044643101     Delta-E=       -0.024713418739 Rises=F Damp=F
 DIIS: error= 3.76D-03 at cycle   3 NSaved=   3.
 NSaved= 3 IEnMin= 3 EnMin= -151.548044643101     IErMin= 3 ErrMin= 3.76D-03
 ErrMax= 3.76D-03  0.00D+00 EMaxC= 1.00D-01 BMatC= 1.27D-03 BMatP= 4.15D-02
 IDIUse=3 WtCom= 9.62D-01 WtEn= 3.76D-02
 Coeff-Com:  0.365D-01 0.164D+00 0.800D+00
 Coeff-En:   0.000D+00 0.000D+00 0.100D+01
 Coeff:      0.351D-01 0.157D+00 0.807D+00
 Gap=     0.435 Goal=   None    Shift=    0.000
 RMSDP=1.86D-04 MaxDP=3.21D-03 DE=-2.47D-02 OVMax= 6.65D-03

 Cycle   4  Pass 0  IDiag  1:
 E= -151.548835996063     Delta-E=       -0.000791352962 Rises=F Damp=F
 DIIS: error= 6.41D-04 at cycle   4 NSaved=   4.
 NSaved= 4 IEnMin= 4 EnMin= -151.548835996063     IErMin= 4 ErrMin= 6.41D-04
 ErrMax= 6.41D-04  0.00D+00 EMaxC= 1.00D-01 BMatC= 3.30D-05 BMatP= 1.27D-03
 IDIUse=3 WtCom= 9.94D-01 WtEn= 6.41D-03
 Coeff-Com: -0.234D-02 0.195D-01 0.210D+00 0.772D+00
 Coeff-En:   0.000D+00 0.000D+00 0.000D+00 0.100D+01
 Coeff:     -0.232D-02 0.194D-01 0.209D+00 0.774D+00
 Gap=     0.433 Goal=   None    Shift=    0.000
 RMSDP=2.51D-05 MaxDP=3.67D-04 DE=-7.91D-04 OVMax= 9.81D-04

 Cycle   5  Pass 0  IDiag  1:
 E= -151.548855295779     Delta-E=       -0.000019299716 Rises=F Damp=F
 DIIS: error= 3.71D-05 at cycle   5 NSaved=   5.
 NSaved= 5 IEnMin= 5 EnMin= -151.548855295779     IErMin= 5 ErrMin= 3.71D-05
 ErrMax= 3.71D-05  0.00D+00 EMaxC= 1.00D-01 BMatC= 5.43D-08 BMatP= 3.30D-05
 IDIUse=1 WtCom= 1.00D+00 WtEn= 0.00D+00
 Coeff-Com: -0.186D-03-0.287D-02-0.237D-01-0.677D-01 0.109D+01
 Coeff:     -0.186D-03-0.287D-02-0.237D-01-0.677D-01 0.109D+01
 Gap=     0.433 Goal=   None    Shift=    0.000
 RMSDP=3.57D-06 MaxDP=3.52D-05 DE=-1.93D-05 OVMax= 1.48D-04

 Initial convergence to 1.0D-05 achieved.  Increase integral accuracy.
 Cycle   6  Pass 1  IDiag  1:
 E= -151.548851779287     Delta-E=        0.000003516493 Rises=F Damp=F
 DIIS: error= 3.46D-05 at cycle   1 NSaved=   1.
 NSaved= 1 IEnMin= 1 EnMin= -151.548851779287     IErMin= 1 ErrMin= 3.46D-05
 ErrMax= 3.46D-05  0.00D+00 EMaxC= 1.00D-01 BMatC= 8.06D-08 BMatP= 8.06D-08
 IDIUse=1 WtCom= 1.00D+00 WtEn= 0.00D+00
 Coeff-Com:  0.100D+01
 Coeff:      0.100D+01
 Gap=     0.433 Goal=   None    Shift=    0.000
 RMSDP=3.57D-06 MaxDP=3.52D-05 DE= 3.52D-06 OVMax= 5.83D-05

 Cycle   7  Pass 1  IDiag  1:
 E= -151.548851823399     Delta-E=       -0.000000044112 Rises=F Damp=F
 DIIS: error= 4.63D-06 at cycle   2 NSaved=   2.
 NSaved= 2 IEnMin= 2 EnMin= -151.548851823399     IErMin= 2 ErrMin= 4.63D-06
 ErrMax= 4.63D-06  0.00D+00 EMaxC= 1.00D-01 BMatC= 1.63D-09 BMatP= 8.06D-08
 IDIUse=1 WtCom= 1.00D+00 WtEn= 0.00D+00
 Coeff-Com: -0.270D-01 0.103D+01
 Coeff:     -0.270D-01 0.103D+01
 Gap=     0.433 Goal=   None    Shift=    0.000
 RMSDP=4.15D-07 MaxDP=4.36D-06 DE=-4.41D-08 OVMax= 1.60D-05

 Cycle   8  Pass 1  IDiag  1:
 E= -151.548851824228     Delta-E=       -0.000000000830 Rises=F Damp=F
 DIIS: error= 3.31D-06 at cycle   3 NSaved=   3.
 NSaved= 3 IEnMin= 3 EnMin= -151.548851824228     IErMin= 3 ErrMin= 3.31D-06
 ErrMax= 3.31D-06  0.00D+00 EMaxC= 1.00D-01 BMatC= 1.10D-09 BMatP= 1.63D-09
 IDIUse=1 WtCom= 1.00D+00 WtEn= 0.00D+00
 Coeff-Com: -0.286D-01 0.471D+00 0.557D+00
 Coeff:     -0.286D-01 0.471D+00 0.557D+00
 Gap=     0.433 Goal=   None    Shift=    0.000
 RMSDP=1.85D-07 MaxDP=3.66D-06 DE=-8.30D-10 OVMax= 7.39D-06

 Cycle   9  Pass 1  IDiag  1:
 E= -151.548851824959     Delta-E=       -0.000000000730 Rises=F Damp=F
 DIIS: error= 3.15D-07 at cycle   4 NSaved=   4.
 NSaved= 4 IEnMin= 4 EnMin= -151.548851824959     IErMin= 4 ErrMin= 3.15D-07
 ErrMax= 3.15D-07  0.00D+00 EMaxC= 1.00D-01 BMatC= 1.54D-11 BMatP= 1.10D-09
 IDIUse=1 WtCom= 1.00D+00 WtEn= 0.00D+00
 Coeff-Com: -0.883D-04-0.405D-01 0.212D-01 0.102D+01
 Coeff:     -0.883D-04-0.405D-01 0.212D-01 0.102D+01
 Gap=     0.433 Goal=   None    Shift=    0.000
 RMSDP=7.29D-08 MaxDP=7.70D-07 DE=-7.30D-10 OVMax= 4.53D-06

 Cycle  10  Pass 1  IDiag  1:
 E= -151.548851824995     Delta-E=       -0.000000000036 Rises=F Damp=F
 DIIS: error= 2.07D-07 at cycle   5 NSaved=   5.
 NSaved= 5 IEnMin= 5 EnMin= -151.548851824995     IErMin= 5 ErrMin= 2.07D-07
 ErrMax= 2.07D-07  0.00D+00 EMaxC= 1.00D-01 BMatC= 5.15D-12 BMatP= 1.54D-11
 IDIUse=1 WtCom= 1.00D+00 WtEn= 0.00D+00
 Coeff-Com:  0.304D-02-0.639D-01-0.470D-01 0.354D+00 0.754D+00
 Coeff:      0.304D-02-0.639D-01-0.470D-01 0.354D+00 0.754D+00
 Gap=     0.433 Goal=   None    Shift=    0.000
 RMSDP=2.84D-08 MaxDP=3.20D-07 DE=-3.58D-11 OVMax= 1.75D-06

 Cycle  11  Pass 1  IDiag  1:
 E= -151.548851825003     Delta-E=       -0.000000000008 Rises=F Damp=F
 DIIS: error= 1.03D-07 at cycle   6 NSaved=   6.
 NSaved= 6 IEnMin= 6 EnMin= -151.548851825003     IErMin= 6 ErrMin= 1.03D-07
 ErrMax= 1.03D-07  0.00D+00 EMaxC= 1.00D-01 BMatC= 1.84D-12 BMatP= 5.15D-12
 IDIUse=1 WtCom= 1.00D+00 WtEn= 0.00D+00
 Coeff-Com:  0.195D-02-0.295D-01-0.326D-01-0.396D-01 0.414D+00 0.685D+00
 Coeff:      0.195D-02-0.295D-01-0.326D-01-0.396D-01 0.414D+00 0.685D+00
 Gap=     0.433 Goal=   None    Shift=    0.000
 RMSDP=1.52D-08 MaxDP=1.50D-07 DE=-8.50D-12 OVMax= 9.85D-07

 Cycle  12  Pass 1  IDiag  1:
 E= -151.548851825005     Delta-E=       -0.000000000002 Rises=F Damp=F
 DIIS: error= 2.02D-08 at cycle   7 NSaved=   7.
 NSaved= 7 IEnMin= 7 EnMin= -151.548851825005     IErMin= 7 ErrMin= 2.02D-08
 ErrMax= 2.02D-08  0.00D+00 EMaxC= 1.00D-01 BMatC= 6.89D-14 BMatP= 1.84D-12
 IDIUse=1 WtCom= 1.00D+00 WtEn= 0.00D+00
 Coeff-Com: -0.392D-03 0.819D-02 0.712D-02-0.484D-01-0.107D+00 0.503D-01
 Coeff-Com:  0.109D+01
 Coeff:     -0.392D-03 0.819D-02 0.712D-02-0.484D-01-0.107D+00 0.503D-01
 Coeff:      0.109D+01
 Gap=     0.433 Goal=   None    Shift=    0.000
 RMSDP=6.35D-09 MaxDP=6.45D-08 DE=-2.36D-12 OVMax= 4.44D-07

 SCF Done:  E(RM062X) =  -151.548851825     A.U. after   12 cycles
            NFock= 12  Conv=0.63D-08     -V/T= 2.0045
 KE= 1.508713056220D+02 PE=-4.332877338437D+02 EE= 9.353903086648D+01
 Leave Link  502 at Fri Aug  9 22:46:51 2019, MaxMem=   671088640 cpu:              35.9 elap:               1.9
 (Enter /shared/centos7/gaussian/g16/l801.exe)
 DoSCS=F DFT=T ScalE2(SS,OS)=  1.000000  1.000000
 Range of M.O.s used for correlation:     1    88
 NBasis=    88 NAE=     9 NBE=     9 NFC=     0 NFV=     0
 NROrb=     88 NOA=     9 NOB=     9 NVA=    79 NVB=    79
 Leave Link  801 at Fri Aug  9 22:46:51 2019, MaxMem=   671088640 cpu:               0.5 elap:               0.0
 (Enter /shared/centos7/gaussian/g16/l1101.exe)
 Using compressed storage, NAtomX=     4.
 Will process      5 centers per pass.
 Leave Link 1101 at Fri Aug  9 22:46:52 2019, MaxMem=   671088640 cpu:               4.0 elap:               0.2
 (Enter /shared/centos7/gaussian/g16/l1102.exe)
 Symmetrizing basis deriv contribution to polar:
 IMax=3 JMax=2 DiffMx= 0.00D+00
 Leave Link 1102 at Fri Aug  9 22:46:52 2019, MaxMem=   671088640 cpu:               0.4 elap:               0.0
 (Enter /shared/centos7/gaussian/g16/l1110.exe)
 Forming Gx(P) for the SCF density, NAtomX=     4.
 Integral derivatives from FoFJK, PRISM(SPDF).
 Do as many integral derivatives as possible in FoFJK.
 G2DrvN: MDV=     671088232.
 G2DrvN: will do     5 centers at a time, making    1 passes.
 Calling FoFCou, ICntrl=  3107 FMM=F I1Cent=   0 AccDes= 0.00D+00.
 FoFJK:  IHMeth= 1 ICntrl=    3107 DoSepK=F KAlg= 0 I1Cent=           0 FoldK=F
 IRaf=         0 NMat=       1 IRICut=       1 DoRegI=T DoRafI=F ISym2E= 0 IDoP0=0 IntGTp=1.
 FoFCou: FMM=F IPFlag=           0 FMFlag=      100000 FMFlg1=           0
         NFxFlg=           0 DoJE=F BraDBF=F KetDBF=F FulRan=T
         wScrn=  0.000000 ICntrl=      3107 IOpCl=  0 I1Cent=           0 NGrid=           0
         NMat0=    1 NMatS0=      1 NMatT0=    0 NMatD0=    1 NMtDS0=    0 NMtDT0=    0
 Symmetry not used in FoFCou.
 End of G2Drv F.D. properties file   721 does not exist.
 End of G2Drv F.D. properties file   722 does not exist.
 End of G2Drv F.D. properties file   788 does not exist.
 Leave Link 1110 at Fri Aug  9 22:46:54 2019, MaxMem=   671088640 cpu:              53.6 elap:               2.7
 (Enter /shared/centos7/gaussian/g16/l1002.exe)
 Minotr:  Closed shell wavefunction.
          IDoAtm=1111
          Direct CPHF calculation.
          Differentiating once with respect to nuclear coordinates.
          Requested convergence is 1.0D-08 RMS, and 1.0D-07 maximum.
          Secondary convergence is 1.0D-12 RMS, and 1.0D-12 maximum.
          NewPWx=T KeepS1=F KeepF1=F KeepIn=T MapXYZ=F SortEE=F KeepMc=T.
         1193 words used for storage of precomputed grid.
 Keep R1 ints in memory in canonical form, NReq=26121925.
 FoFCou: FMM=F IPFlag=           0 FMFlag=           0 FMFlg1=           0
         NFxFlg=           0 DoJE=F BraDBF=F KetDBF=F FulRan=T
         wScrn=  0.000000 ICntrl=       600 IOpCl=  0 I1Cent=           0 NGrid=           0
         NMat0=    1 NMatS0=   3916 NMatT0=    0 NMatD0=    1 NMtDS0=    0 NMtDT0=    0
 Symmetry not used in FoFCou.
 Two-electron integral symmetry not used.
          MDV=     671088640 using IRadAn=       1.
          Solving linear equations simultaneously, MaxMat=       0.
          There are    15 degrees of freedom in the 1st order CPHF.  IDoFFX=6 NUNeed=     0.
      9 vectors produced by pass  0 Test12= 4.74D-15 6.67D-09 XBig12= 4.82D-02 1.05D-01.
 AX will form     9 AO Fock derivatives at one time.
      9 vectors produced by pass  1 Test12= 4.74D-15 6.67D-09 XBig12= 2.05D-03 1.71D-02.
      9 vectors produced by pass  2 Test12= 4.74D-15 6.67D-09 XBig12= 2.64D-04 5.56D-03.
      9 vectors produced by pass  3 Test12= 4.74D-15 6.67D-09 XBig12= 3.83D-06 5.84D-04.
      9 vectors produced by pass  4 Test12= 4.74D-15 6.67D-09 XBig12= 2.63D-08 4.12D-05.
      9 vectors produced by pass  5 Test12= 4.74D-15 6.67D-09 XBig12= 1.45D-10 3.67D-06.
      7 vectors produced by pass  6 Test12= 4.74D-15 6.67D-09 XBig12= 5.67D-13 2.05D-07.
      2 vectors produced by pass  7 Test12= 4.74D-15 6.67D-09 XBig12= 3.34D-15 1.63D-08.
 InvSVY:  IOpt=1 It=  1 EMax= 6.66D-16
 Solved reduced A of dimension    63 with     9 vectors.
 End of Minotr F.D. properties file   721 does not exist.
 End of Minotr F.D. properties file   722 does not exist.
 End of Minotr F.D. properties file   788 does not exist.
 Leave Link 1002 at Fri Aug  9 22:46:57 2019, MaxMem=   671088640 cpu:              62.2 elap:               3.1
 (Enter /shared/centos7/gaussian/g16/l601.exe)
 Copying SCF densities to generalized density rwf, IOpCl= 0 IROHF=0.

 **********************************************************************

            Population analysis using the SCF density.

 **********************************************************************

 Orbital symmetries:
       Occupied  (A) (A) (A) (A) (A) (A) (A) (A) (A)
       Virtual   (A) (A) (A) (A) (A) (A) (A) (A) (A) (A) (A) (A)
                 (A) (A) (A) (A) (A) (A) (A) (A) (A) (A) (A) (A)
                 (A) (A) (A) (A) (A) (A) (A) (A) (A) (A) (A) (A)
                 (A) (A) (A) (A) (A) (A) (A) (A) (A) (A) (A) (A)
                 (A) (A) (A) (A) (A) (A) (A) (A) (A) (A) (A) (A)
                 (A) (A) (A) (A) (A) (A) (A) (A) (A) (A) (A) (A)
                 (A) (A) (A) (A) (A) (A) (A)
 The electronic state is 1-A.
 Alpha  occ. eigenvalues --  -19.68162 -19.68144  -1.26079  -1.01281  -0.61622
 Alpha  occ. eigenvalues --   -0.58646  -0.51251  -0.40342  -0.36727
 Alpha virt. eigenvalues --    0.06536   0.06765   0.14790   0.43077   0.44566
 Alpha virt. eigenvalues --    0.54260   0.54343   0.61135   0.64479   0.68235
 Alpha virt. eigenvalues --    0.70890   0.72766   0.73660   0.86084   0.86549
 Alpha virt. eigenvalues --    1.11204   1.13707   1.34487   1.42546   1.47874
 Alpha virt. eigenvalues --    1.56265   1.76925   1.85509   1.86116   1.92526
 Alpha virt. eigenvalues --    1.97693   2.12215   2.18072   2.26948   2.54528
 Alpha virt. eigenvalues --    2.65605   3.17085   3.21402   3.28499   3.29628
 Alpha virt. eigenvalues --    3.39116   3.47119   3.48293   3.58671   3.67530
 Alpha virt. eigenvalues --    3.70963   3.72189   3.78686   3.86301   3.94868
 Alpha virt. eigenvalues --    4.06064   4.12895   4.19400   4.35721   4.46451
 Alpha virt. eigenvalues --    4.50758   4.78588   4.85326   4.98603   5.04283
 Alpha virt. eigenvalues --    5.16493   5.29441   5.57246   5.88674   5.89317
 Alpha virt. eigenvalues --    6.15755   6.29908   6.35065   6.35636   6.38450
 Alpha virt. eigenvalues --    6.40224   6.59165   6.60276   6.60750   6.69771
 Alpha virt. eigenvalues --    6.72061   6.77472   6.88515   7.06926   7.11254
 Alpha virt. eigenvalues --    7.49883   7.61694  10.54558  11.16506
          Condensed to atoms (all electrons):
               1          2          3          4
     1  O    7.920614   0.061566   0.315135  -0.027563
     2  O    0.061566   7.920607  -0.027563   0.315138
     3  H    0.315135  -0.027563   0.444905  -0.002230
     4  H   -0.027563   0.315138  -0.002230   0.444907
 Mulliken charges:
               1
     1  O   -0.269753
     2  O   -0.269748
     3  H    0.269753
     4  H    0.269748
 Sum of Mulliken charges =  -0.00000
 Mulliken charges with hydrogens summed into heavy atoms:
               1
     1  O   -0.000000
     2  O    0.000000
 APT charges:
               1
     1  O   -0.476212
     2  O   -0.476205
     3  H    0.476211
     4  H    0.476206
 Sum of APT charges =  -0.00000
 APT charges with hydrogens summed into heavy atoms:
               1
     1  O   -0.000001
     2  O    0.000001
 Electronic spatial extent (au):  <R**2>=             64.9838
 Charge=             -0.0000 electrons
 Dipole moment (field-independent basis, Debye):
    X=              0.0000    Y=              0.0000    Z=              1.8440  Tot=              1.8440
 Quadrupole moment (field-independent basis, Debye-Ang):
   XX=            -10.2888   YY=            -10.5320   ZZ=            -11.5711
   XY=              3.0660   XZ=             -0.0000   YZ=             -0.0000
 Traceless Quadrupole moment (field-independent basis, Debye-Ang):
   XX=              0.5085   YY=              0.2653   ZZ=             -0.7738
   XY=              3.0660   XZ=             -0.0000   YZ=             -0.0000
 Octapole moment (field-independent basis, Debye-Ang**2):
  XXX=              0.0000  YYY=              0.0001  ZZZ=              1.0961  XYY=              0.0001
  XXY=              0.0001  XXZ=              2.4803  XZZ=             -0.0000  YZZ=             -0.0000
  YYZ=              0.9662  XYZ=              1.5160
 Hexadecapole moment (field-independent basis, Debye-Ang**3):
 XXXX=            -41.6099 YYYY=            -10.8165 ZZZZ=            -10.3616 XXXY=              4.0049
 XXXZ=             -0.0000 YYYX=              2.5634 YYYZ=              0.0000 ZZZX=             -0.0000
 ZZZY=             -0.0000 XXYY=             -8.3708 XXZZ=             -9.2300 YYZZ=             -3.2128
 XXYZ=              0.0000 YYXZ=              0.0000 ZZXY=              1.0949
 N-N= 3.732854553024D+01 E-N=-4.332877332951D+02  KE= 1.508713056220D+02
  Exact polarizability:   0.000   0.000   0.000   0.000   0.000   0.000
 Approx polarizability:  17.925   0.640  11.555   0.000   0.000   9.614
 No NMR shielding tensors so no spin-rotation constants.
 Leave Link  601 at Fri Aug  9 22:46:58 2019, MaxMem=   671088640 cpu:               3.7 elap:               0.2
 (Enter /shared/centos7/gaussian/g16/l701.exe)
 ... and contract with generalized density number  0.
 Compute integral second derivatives.
 Leave Link  701 at Fri Aug  9 22:46:58 2019, MaxMem=   671088640 cpu:               5.9 elap:               0.3
 (Enter /shared/centos7/gaussian/g16/l702.exe)
 L702 exits ... SP integral derivatives will be done elsewhere.
 Leave Link  702 at Fri Aug  9 22:46:58 2019, MaxMem=   671088640 cpu:               0.6 elap:               0.1
 (Enter /shared/centos7/gaussian/g16/l703.exe)
 Integral derivatives from FoFJK, PRISM(SPDF).
 Compute integral second derivatives, UseDBF=F ICtDFT=           0.
 Calling FoFJK, ICntrl=    100147 FMM=F ISym2X=0 I1Cent= 0 IOpClX= 0 NMat=1 NMatS=1 NMatT=0.
 FoFJK:  IHMeth= 1 ICntrl=  100147 DoSepK=F KAlg= 0 I1Cent=           0 FoldK=F
 IRaf=         0 NMat=       1 IRICut=       1 DoRegI=T DoRafI=F ISym2E= 0 IDoP0=0 IntGTp=1.
 FoFCou: FMM=F IPFlag=           0 FMFlag=      100000 FMFlg1=         800
         NFxFlg=           0 DoJE=F BraDBF=F KetDBF=F FulRan=T
         wScrn=  0.000000 ICntrl=    100147 IOpCl=  0 I1Cent=           0 NGrid=           0
         NMat0=    1 NMatS0=      1 NMatT0=    0 NMatD0=    1 NMtDS0=    0 NMtDT0=    0
 Symmetry not used in FoFCou.
 Leave Link  703 at Fri Aug  9 22:47:04 2019, MaxMem=   671088640 cpu:             115.2 elap:               5.8
 (Enter /shared/centos7/gaussian/g16/l716.exe)
 Dipole        = 5.65255273D-06 1.37794860D-05 7.25504789D-01
 Polarizability= 0.00000000D+00 0.00000000D+00 0.00000000D+00
                 0.00000000D+00 0.00000000D+00 0.00000000D+00
 ***** Axes restored to original set *****
 -------------------------------------------------------------------
 Center     Atomic                   Forces (Hartrees/Bohr)
 Number     Number              X              Y              Z
 -------------------------------------------------------------------
      1        8           0.000006734   -0.000005901    0.000001386
      2        8          -0.000012869    0.000003326   -0.000010141
      3        1           0.000008627    0.000001490    0.000002871
      4        1          -0.000002492    0.000001084    0.000005884
 -------------------------------------------------------------------
 Cartesian Forces:  Max     0.000012869 RMS     0.000006380
 Force constants in Cartesian coordinates: 
                1             2             3             4             5 
      1  0.541873D+00
      2  0.107830D+00  0.409574D+00
      3  0.537496D-01  0.281199D-01  0.309348D-01
      4 -0.215791D+00  0.106781D+00  0.258773D-02  0.324335D+00
      5  0.139455D+00 -0.133452D+00 -0.242741D-01 -0.135306D+00  0.148075D+00
      6 -0.304243D-01  0.144788D-03 -0.366003D-01  0.167450D+00  0.808659D-01
      7 -0.299708D+00 -0.216882D+00 -0.280019D-01 -0.320959D-01 -0.943539D-02
      8 -0.274808D+00 -0.268372D+00 -0.318835D-01  0.448884D-01  0.100016D-01
      9 -0.341473D-01 -0.252933D-01 -0.465058D-02  0.587215D-02 -0.105163D-02
     10 -0.263739D-01  0.227155D-02 -0.283355D-01 -0.764478D-01  0.528640D-02
     11  0.275229D-01 -0.775008D-02  0.280377D-01 -0.163629D-01 -0.246242D-01
     12  0.108220D-01 -0.297129D-02  0.103161D-01 -0.175910D+00 -0.555402D-01
                6             7             8             9            10 
      6  0.510004D+00
      7 -0.565244D-02  0.336097D+00
      8  0.590764D-02  0.225703D+00  0.260033D+00
      9 -0.171269D-02  0.321494D-01  0.269677D-01  0.602836D-02
     10 -0.131373D+00 -0.429297D-02  0.421639D-02 -0.387426D-02  0.107115D+00
     11 -0.869184D-01  0.614349D-03 -0.166269D-02 -0.622690D-03 -0.117743D-01
     12 -0.471691D+00  0.150486D-02 -0.991794D-03  0.334907D-03  0.163583D+00
               11            12 
     11  0.340370D-01
     12  0.595033D-01  0.461040D+00
 FormGI is forming the generalized inverse of G from B-inverse, IUseBI=4.
 Force constants in internal coordinates: 
                1             2             3             4             5 
      1  0.375001D+00
      2 -0.396386D-02  0.530297D+00
      3 -0.396463D-02 -0.137628D-03  0.530343D+00
      4  0.729881D-01 -0.299698D-02  0.577432D-03  0.228831D+00
      5  0.729892D-01  0.577482D-03 -0.299662D-02  0.188378D-01  0.228832D+00
      6  0.136485D-02 -0.215796D-02 -0.215759D-02 -0.886990D-02 -0.886967D-02
                6 
      6  0.908630D-02
 Leave Link  716 at Fri Aug  9 22:47:04 2019, MaxMem=   671088640 cpu:               0.8 elap:               0.1
 (Enter /shared/centos7/gaussian/g16/l103.exe)

 GradGradGradGradGradGradGradGradGradGradGradGradGradGradGradGradGradGrad
 Berny optimization.
 Red2BG is reusing G-inverse.
 Internal  Forces:  Max     0.000015662 RMS     0.000009263
 Search for a local minimum.
 Step number   1 out of a maximum of   20 on scan point     1 out of    37
 All quantities printed in internal units (Hartrees-Bohrs-Radians)
 RMS Force = .10044D-04 SwitMx=.10000D-02 MixMth= 2
 Mixed Optimization -- En-DIIS/RFO-DIIS
 Second derivative matrix not updated -- analytic derivatives used.
 The second derivative matrix:
                          R1        R2        R3        A1        A2
           R1           0.37500
           R2          -0.00396   0.53030
           R3          -0.00396  -0.00014   0.53034
           A1           0.07299  -0.00300   0.00058   0.22883
           A2           0.07299   0.00058  -0.00300   0.01884   0.22883
           D1           0.00136  -0.00216  -0.00216  -0.00887  -0.00887
                          D1
           D1           0.00909
 ITU=  0
     Eigenvalues ---    0.19006   0.20995   0.43223   0.53049   0.53057
     Eigenvalues --- 1000.00000
 RFO step:  Lambda= 0.00000000D+00 EMin= 1.90057226D-01
 Linear search not attempted -- first point.
 Iteration  1 RMS(Cart)=  0.00003239 RMS(Int)=  0.00000000
 Iteration  2 RMS(Cart)=  0.00000000 RMS(Int)=  0.00000000
 Iteration  1 RMS(Cart)=  0.00000000 RMS(Int)=  0.00000000
 ITry= 1 IFail=0 DXMaxC= 5.02D-05 DCOld= 1.00D+10 DXMaxT= 3.00D-01 DXLimC= 3.00D+00 Rises=F
 Variable       Old X    -DE/DX   Delta X   Delta X   Delta X     New X
                                 (Linear)    (Quad)   (Total)
    R1        2.69054  -0.00002   0.00000  -0.00003  -0.00003   2.69051
    R2        1.82049  -0.00001   0.00000  -0.00001  -0.00001   1.82048
    R3        1.82047   0.00001   0.00000   0.00001   0.00001   1.82048
    A1        1.76760  -0.00001   0.00000  -0.00003  -0.00003   1.76756
    A2        1.76759  -0.00001   0.00000  -0.00003  -0.00003   1.76756
    D1       -1.96546   0.00000   0.00000   0.00000  -0.00000  -1.96546
         Item               Value     Threshold  Converged?
 Maximum Force            0.000016     0.000450     YES
 RMS     Force            0.000010     0.000300     YES
 Maximum Displacement     0.000050     0.001800     YES
 RMS     Displacement     0.000032     0.001200     YES
 Predicted change in Energy=-5.921208D-10
 Optimization completed.
    -- Stationary point found.
                           ----------------------------
                           !   Optimized Parameters   !
                           ! (Angstroms and Degrees)  !
 --------------------------                            --------------------------
 ! Name  Definition              Value          Derivative Info.                !
 --------------------------------------------------------------------------------
 ! R1    R(1,2)                  1.4238         -DE/DX =    0.0                 !
 ! R2    R(1,3)                  0.9634         -DE/DX =    0.0                 !
 ! R3    R(2,4)                  0.9634         -DE/DX =    0.0                 !
 ! A1    A(2,1,3)              101.2758         -DE/DX =    0.0                 !
 ! A2    A(1,2,4)              101.2755         -DE/DX =    0.0                 !
 ! D1    D(3,1,2,4)           -112.6123         -DE/DX =    0.0                 !
 --------------------------------------------------------------------------------
 Lowest energy point so far.  Saving SCF results.
 Iteration  1 RMS(Cart)=  0.06517574 RMS(Int)=  0.00394467
 Iteration  2 RMS(Cart)=  0.00276050 RMS(Int)=  0.00000238
 Iteration  3 RMS(Cart)=  0.00000231 RMS(Int)=  0.00000000
 Iteration  4 RMS(Cart)=  0.00000000 RMS(Int)=  0.00000000
 Iteration  1 RMS(Cart)=  0.00000000 RMS(Int)=  0.00000000
 GradGradGradGradGradGradGradGradGradGradGradGradGradGradGradGradGradGrad

 Leave Link  103 at Fri Aug  9 22:47:04 2019, MaxMem=   671088640 cpu:               0.3 elap:               0.0
 (Enter /shared/centos7/gaussian/g16/l202.exe)
                          Input orientation:                          
 ---------------------------------------------------------------------
 Center     Atomic      Atomic             Coordinates (Angstroms)
 Number     Number       Type             X           Y           Z
 ---------------------------------------------------------------------
      1          8           0       -0.536231    0.473706    0.014900
      2          8           0        0.592797   -0.393579    0.001218
      3          1           0       -1.261089   -0.160810    0.019753
      4          1           0        0.876646   -0.347748    0.920665
 ---------------------------------------------------------------------
                    Distance matrix (angstroms):
                    1          2          3          4
     1  O    0.000000
     2  O    1.423755   0.000000
     3  H    0.963355   1.868534   0.000000
     4  H    1.868534   0.963355   2.327337   0.000000
 Stoichiometry    H2O2
 Framework group  C1[X(H2O2)]
 Deg. of freedom     6
 Full point group                 C1      NOp   1
 RotChk:  IX=0 Diff= 1.60D-02
 Largest Abelian subgroup         C1      NOp   1
 Largest concise Abelian subgroup C1      NOp   1
                         Standard orientation:                         
 ---------------------------------------------------------------------
 Center     Atomic      Atomic             Coordinates (Angstroms)
 Number     Number       Type             X           Y           Z
 ---------------------------------------------------------------------
      1          8           0        0.703984   -0.105715   -0.065625
      2          8           0       -0.703984    0.105715   -0.065625
      3          1           0        0.999735    0.595529    0.525003
      4          1           0       -0.999735   -0.595529    0.525003
 ---------------------------------------------------------------------
 Rotational constants (GHZ):         306.0597929          27.1525330          26.6818854
 Leave Link  202 at Fri Aug  9 22:47:04 2019, MaxMem=   671088640 cpu:               0.2 elap:               0.0
 (Enter /shared/centos7/gaussian/g16/l301.exe)
 Standard basis: CC-pVTZ (5D, 7F)
 Ernie: Thresh=  0.10000D-02 Tol=  0.10000D-05 Strict=F.
 Ernie:  6 primitive shells out of 68 were deleted.
 There are   100 symmetry adapted cartesian basis functions of A   symmetry.
 There are    88 symmetry adapted basis functions of A   symmetry.
    88 basis functions,   138 primitive gaussians,   100 cartesian basis functions
     9 alpha electrons        9 beta electrons
       nuclear repulsion energy        37.3348947582 Hartrees.
 IExCor= 4336 DFT=T Ex+Corr=M062X ExCW=0 ScaHFX=  0.540000
 ScaDFX=  1.000000  1.000000  1.000000  1.000000 ScalE2=  1.000000  1.000000
 IRadAn=      5 IRanWt=     -1 IRanGd=            0 ICorTp=0 IEmpDi=  4
 NAtoms=    4 NActive=    4 NUniq=    4 SFac= 1.00D+00 NAtFMM=   60 NAOKFM=F Big=F
 Integral buffers will be    131072 words long.
 Raffenetti 2 integral format.
 Two-electron integral symmetry is turned on.
 Leave Link  301 at Fri Aug  9 22:47:04 2019, MaxMem=   671088640 cpu:               1.2 elap:               0.1
 (Enter /shared/centos7/gaussian/g16/l302.exe)
 NPDir=0 NMtPBC=     1 NCelOv=     1 NCel=       1 NClECP=     1 NCelD=      1
         NCelK=      1 NCelE2=     1 NClLst=     1 CellRange=     0.0.
 One-electron integrals computed using PRISM.
 One-electron integral symmetry used in STVInt
 NBasis=    88 RedAO= T EigKep=  2.80D-03  NBF=    88
 NBsUse=    88 1.00D-06 EigRej= -1.00D+00 NBFU=    88
 Precomputing XC quadrature grid using
 IXCGrd= 4 IRadAn=           5 IRanWt=          -1 IRanGd=           0 AccXCQ= 0.00D+00.
 Generated NRdTot=       0 NPtTot=           0 NUsed=           0 NTot=          32
 NSgBfM=   100   100   100   100   100 MxSgAt=     4 MxSgA2=     4.
 Leave Link  302 at Fri Aug  9 22:47:04 2019, MaxMem=   671088640 cpu:               3.4 elap:               0.2
 (Enter /shared/centos7/gaussian/g16/l303.exe)
 DipDrv:  MaxL=1.
 Leave Link  303 at Fri Aug  9 22:47:04 2019, MaxMem=   671088640 cpu:               0.4 elap:               0.0
 (Enter /shared/centos7/gaussian/g16/l401.exe)
 Initial guess from the checkpoint file:  "/scratch/harms.n/gauss_scrdir/Gau-27304.chk"
 B after Tr=     0.000000    0.000000   -0.000000
         Rot=    0.999998   -0.000008    0.000000   -0.001874 Ang=  -0.21 deg.
 Guess basis will be translated and rotated to current coordinates.
 JPrj=2 DoOrth=T DoCkMO=T.
 Generating alternative initial guess.
 ExpMin= 1.03D-01 ExpMax= 1.53D+04 ExpMxC= 5.22D+02 IAcc=2 IRadAn=         4 AccDes= 0.00D+00
 Harris functional with IExCor= 1009 and IRadAn=       4 diagonalized for initial guess.
 HarFok:  IExCor= 1009 AccDes= 0.00D+00 IRadAn=         4 IDoV= 1 UseB2=F ITyADJ=14
 ICtDFT=  3500011 ScaDFX=  1.000000  1.000000  1.000000  1.000000
 FoFCou: FMM=F IPFlag=           0 FMFlag=      100000 FMFlg1=           0
         NFxFlg=           0 DoJE=T BraDBF=F KetDBF=T FulRan=T
         wScrn=  0.000000 ICntrl=       500 IOpCl=  0 I1Cent=   200000004 NGrid=           0
         NMat0=    1 NMatS0=      1 NMatT0=    0 NMatD0=    1 NMtDS0=    0 NMtDT0=    0
 Petite list used in FoFCou.
 Harris En= -151.488226906769    
 Leave Link  401 at Fri Aug  9 22:47:05 2019, MaxMem=   671088640 cpu:               6.7 elap:               0.4
 (Enter /shared/centos7/gaussian/g16/l502.exe)
 Keep R1 ints in memory in canonical form, NReq=26188250.
 FoFCou: FMM=F IPFlag=           0 FMFlag=           0 FMFlg1=           0
         NFxFlg=           0 DoJE=F BraDBF=F KetDBF=F FulRan=T
         wScrn=  0.000000 ICntrl=       600 IOpCl=  0 I1Cent=           0 NGrid=           0
         NMat0=    1 NMatS0=   3916 NMatT0=    0 NMatD0=    1 NMtDS0=    0 NMtDT0=    0
 Symmetry not used in FoFCou.
 Two-electron integral symmetry not used.
 Closed shell SCF:
 Using DIIS extrapolation, IDIIS=  1040.
 NGot=   671088640 LenX=   663396154 LenY=   663385713
 Requested convergence on RMS density matrix=1.00D-08 within 128 cycles.
 Requested convergence on MAX density matrix=1.00D-06.
 Requested convergence on             energy=1.00D-06.
 No special actions if energy rises.
 Integral accuracy reduced to 1.0D-05 until final iterations.

 Cycle   1  Pass 0  IDiag  1:
 E= -151.546908610802    
 DIIS: error= 3.83D-03 at cycle   1 NSaved=   1.
 NSaved= 1 IEnMin= 1 EnMin= -151.546908610802     IErMin= 1 ErrMin= 3.83D-03
 ErrMax= 3.83D-03  0.00D+00 EMaxC= 1.00D-01 BMatC= 1.69D-03 BMatP= 1.69D-03
 IDIUse=3 WtCom= 9.62D-01 WtEn= 3.83D-02
 Coeff-Com:  0.100D+01
 Coeff-En:   0.100D+01
 Coeff:      0.100D+01
 Gap=     1.288 Goal=   None    Shift=    0.000
 GapD=    1.288 DampG=2.000 DampE=1.000 DampFc=2.0000 IDamp=-1.
 RMSDP=4.82D-04 MaxDP=6.38D-03              OVMax= 1.49D-02

 Cycle   2  Pass 0  IDiag  1:
 E= -151.548615262608     Delta-E=       -0.001706651806 Rises=F Damp=F
 DIIS: error= 6.29D-04 at cycle   2 NSaved=   2.
 NSaved= 2 IEnMin= 2 EnMin= -151.548615262608     IErMin= 2 ErrMin= 6.29D-04
 ErrMax= 6.29D-04  0.00D+00 EMaxC= 1.00D-01 BMatC= 5.25D-05 BMatP= 1.69D-03
 IDIUse=3 WtCom= 9.94D-01 WtEn= 6.29D-03
 Coeff-Com: -0.109D+00 0.111D+01
 Coeff-En:   0.000D+00 0.100D+01
 Coeff:     -0.109D+00 0.111D+01
 Gap=     0.440 Goal=   None    Shift=    0.000
 RMSDP=1.24D-04 MaxDP=1.88D-03 DE=-1.71D-03 OVMax= 4.01D-03

 Cycle   3  Pass 0  IDiag  1:
 E= -151.548691033138     Delta-E=       -0.000075770531 Rises=F Damp=F
 DIIS: error= 4.11D-04 at cycle   3 NSaved=   3.
 NSaved= 3 IEnMin= 3 EnMin= -151.548691033138     IErMin= 3 ErrMin= 4.11D-04
 ErrMax= 4.11D-04  0.00D+00 EMaxC= 1.00D-01 BMatC= 1.17D-05 BMatP= 5.25D-05
 IDIUse=3 WtCom= 9.96D-01 WtEn= 4.11D-03
 Coeff-Com: -0.499D-01 0.346D+00 0.703D+00
 Coeff-En:   0.000D+00 0.000D+00 0.100D+01
 Coeff:     -0.497D-01 0.345D+00 0.705D+00
 Gap=     0.439 Goal=   None    Shift=    0.000
 RMSDP=2.99D-05 MaxDP=4.12D-04 DE=-7.58D-05 OVMax= 1.30D-03

 Cycle   4  Pass 0  IDiag  1:
 E= -151.548700113527     Delta-E=       -0.000009080389 Rises=F Damp=F
 DIIS: error= 1.03D-04 at cycle   4 NSaved=   4.
 NSaved= 4 IEnMin= 4 EnMin= -151.548700113527     IErMin= 4 ErrMin= 1.03D-04
 ErrMax= 1.03D-04  0.00D+00 EMaxC= 1.00D-01 BMatC= 1.58D-06 BMatP= 1.17D-05
 IDIUse=3 WtCom= 9.99D-01 WtEn= 1.03D-03
 Coeff-Com:  0.595D-02-0.100D+00 0.206D+00 0.888D+00
 Coeff-En:   0.000D+00 0.000D+00 0.000D+00 0.100D+01
 Coeff:      0.594D-02-0.100D+00 0.206D+00 0.888D+00
 Gap=     0.439 Goal=   None    Shift=    0.000
 RMSDP=1.65D-05 MaxDP=1.96D-04 DE=-9.08D-06 OVMax= 6.30D-04

 Cycle   5  Pass 0  IDiag  1:
 E= -151.548701899187     Delta-E=       -0.000001785659 Rises=F Damp=F
 DIIS: error= 2.27D-05 at cycle   5 NSaved=   5.
 NSaved= 5 IEnMin= 5 EnMin= -151.548701899187     IErMin= 5 ErrMin= 2.27D-05
 ErrMax= 2.27D-05  0.00D+00 EMaxC= 1.00D-01 BMatC= 3.10D-08 BMatP= 1.58D-06
 IDIUse=1 WtCom= 1.00D+00 WtEn= 0.00D+00
 Coeff-Com:  0.287D-02-0.278D-01-0.313D-01 0.250D-01 0.103D+01
 Coeff:      0.287D-02-0.278D-01-0.313D-01 0.250D-01 0.103D+01
 Gap=     0.439 Goal=   None    Shift=    0.000
 RMSDP=4.25D-06 MaxDP=5.72D-05 DE=-1.79D-06 OVMax= 1.85D-04

 Initial convergence to 1.0D-05 achieved.  Increase integral accuracy.
 Cycle   6  Pass 1  IDiag  1:
 E= -151.548697246559     Delta-E=        0.000004652628 Rises=F Damp=F
 DIIS: error= 2.94D-05 at cycle   1 NSaved=   1.
 NSaved= 1 IEnMin= 1 EnMin= -151.548697246559     IErMin= 1 ErrMin= 2.94D-05
 ErrMax= 2.94D-05  0.00D+00 EMaxC= 1.00D-01 BMatC= 5.79D-08 BMatP= 5.79D-08
 IDIUse=1 WtCom= 1.00D+00 WtEn= 0.00D+00
 Coeff-Com:  0.100D+01
 Coeff:      0.100D+01
 Gap=     0.439 Goal=   None    Shift=    0.000
 RMSDP=4.25D-06 MaxDP=5.72D-05 DE= 4.65D-06 OVMax= 4.84D-05

 Cycle   7  Pass 1  IDiag  1:
 E= -151.548697276880     Delta-E=       -0.000000030321 Rises=F Damp=F
 DIIS: error= 4.11D-06 at cycle   2 NSaved=   2.
 NSaved= 2 IEnMin= 2 EnMin= -151.548697276880     IErMin= 2 ErrMin= 4.11D-06
 ErrMax= 4.11D-06  0.00D+00 EMaxC= 1.00D-01 BMatC= 1.53D-09 BMatP= 5.79D-08
 IDIUse=1 WtCom= 1.00D+00 WtEn= 0.00D+00
 Coeff-Com: -0.806D-02 0.101D+01
 Coeff:     -0.806D-02 0.101D+01
 Gap=     0.439 Goal=   None    Shift=    0.000
 RMSDP=4.78D-07 MaxDP=7.27D-06 DE=-3.03D-08 OVMax= 1.68D-05

 Cycle   8  Pass 1  IDiag  1:
 E= -151.548697277415     Delta-E=       -0.000000000535 Rises=F Damp=F
 DIIS: error= 3.10D-06 at cycle   3 NSaved=   3.
 NSaved= 3 IEnMin= 3 EnMin= -151.548697277415     IErMin= 3 ErrMin= 3.10D-06
 ErrMax= 3.10D-06  0.00D+00 EMaxC= 1.00D-01 BMatC= 1.10D-09 BMatP= 1.53D-09
 IDIUse=1 WtCom= 1.00D+00 WtEn= 0.00D+00
 Coeff-Com: -0.248D-01 0.472D+00 0.553D+00
 Coeff:     -0.248D-01 0.472D+00 0.553D+00
 Gap=     0.439 Goal=   None    Shift=    0.000
 RMSDP=1.87D-07 MaxDP=3.86D-06 DE=-5.35D-10 OVMax= 6.36D-06

 Cycle   9  Pass 1  IDiag  1:
 E= -151.548697278121     Delta-E=       -0.000000000706 Rises=F Damp=F
 DIIS: error= 2.24D-07 at cycle   4 NSaved=   4.
 NSaved= 4 IEnMin= 4 EnMin= -151.548697278121     IErMin= 4 ErrMin= 2.24D-07
 ErrMax= 2.24D-07  0.00D+00 EMaxC= 1.00D-01 BMatC= 1.39D-11 BMatP= 1.10D-09
 IDIUse=1 WtCom= 1.00D+00 WtEn= 0.00D+00
 Coeff-Com: -0.478D-02 0.507D-01 0.108D+00 0.846D+00
 Coeff:     -0.478D-02 0.507D-01 0.108D+00 0.846D+00
 Gap=     0.439 Goal=   None    Shift=    0.000
 RMSDP=5.33D-08 MaxDP=7.20D-07 DE=-7.06D-10 OVMax= 2.36D-06

 Cycle  10  Pass 1  IDiag  1:
 E= -151.548697278133     Delta-E=       -0.000000000012 Rises=F Damp=F
 DIIS: error= 2.09D-07 at cycle   5 NSaved=   5.
 NSaved= 5 IEnMin= 5 EnMin= -151.548697278133     IErMin= 5 ErrMin= 2.09D-07
 ErrMax= 2.09D-07  0.00D+00 EMaxC= 1.00D-01 BMatC= 7.50D-12 BMatP= 1.39D-11
 IDIUse=1 WtCom= 1.00D+00 WtEn= 0.00D+00
 Coeff-Com:  0.251D-03-0.270D-01-0.312D-02 0.453D+00 0.577D+00
 Coeff:      0.251D-03-0.270D-01-0.312D-02 0.453D+00 0.577D+00
 Gap=     0.439 Goal=   None    Shift=    0.000
 RMSDP=2.12D-08 MaxDP=2.89D-07 DE=-1.22D-11 OVMax= 9.37D-07

 Cycle  11  Pass 1  IDiag  1:
 E= -151.548697278138     Delta-E=       -0.000000000005 Rises=F Damp=F
 DIIS: error= 4.62D-08 at cycle   6 NSaved=   6.
 NSaved= 6 IEnMin= 6 EnMin= -151.548697278138     IErMin= 6 ErrMin= 4.62D-08
 ErrMax= 4.62D-08  0.00D+00 EMaxC= 1.00D-01 BMatC= 4.45D-13 BMatP= 7.50D-12
 IDIUse=1 WtCom= 1.00D+00 WtEn= 0.00D+00
 Coeff-Com:  0.108D-02-0.200D-01-0.194D-01 0.246D-02 0.190D+00 0.846D+00
 Coeff:      0.108D-02-0.200D-01-0.194D-01 0.246D-02 0.190D+00 0.846D+00
 Gap=     0.439 Goal=   None    Shift=    0.000
 RMSDP=1.03D-08 MaxDP=1.58D-07 DE=-5.23D-12 OVMax= 5.41D-07

 Cycle  12  Pass 1  IDiag  1:
 E= -151.548697278139     Delta-E=       -0.000000000000 Rises=F Damp=F
 DIIS: error= 1.08D-08 at cycle   7 NSaved=   7.
 NSaved= 7 IEnMin= 7 EnMin= -151.548697278139     IErMin= 7 ErrMin= 1.08D-08
 ErrMax= 1.08D-08  0.00D+00 EMaxC= 1.00D-01 BMatC= 1.04D-14 BMatP= 4.45D-13
 IDIUse=1 WtCom= 1.00D+00 WtEn= 0.00D+00
 Coeff-Com: -0.205D-04 0.169D-02 0.133D-02-0.278D-01-0.440D-01-0.236D-01
 Coeff-Com:  0.109D+01
 Coeff:     -0.205D-04 0.169D-02 0.133D-02-0.278D-01-0.440D-01-0.236D-01
 Coeff:      0.109D+01
 Gap=     0.439 Goal=   None    Shift=    0.000
 RMSDP=2.50D-09 MaxDP=3.39D-08 DE=-4.83D-13 OVMax= 1.37D-07

 SCF Done:  E(RM062X) =  -151.548697278     A.U. after   12 cycles
            NFock= 12  Conv=0.25D-08     -V/T= 2.0045
 KE= 1.508720106189D+02 PE=-4.332917490676D+02 EE= 9.353614641237D+01
 Leave Link  502 at Fri Aug  9 22:47:07 2019, MaxMem=   671088640 cpu:              35.6 elap:               1.9
 (Enter /shared/centos7/gaussian/g16/l701.exe)
 ... and contract with generalized density number  0.
 Compute integral first derivatives.
 Leave Link  701 at Fri Aug  9 22:47:07 2019, MaxMem=   671088640 cpu:               4.6 elap:               0.3
 (Enter /shared/centos7/gaussian/g16/l702.exe)
 L702 exits ... SP integral derivatives will be done elsewhere.
 Leave Link  702 at Fri Aug  9 22:47:07 2019, MaxMem=   671088640 cpu:               0.6 elap:               0.1
 (Enter /shared/centos7/gaussian/g16/l703.exe)
 Integral derivatives from FoFJK, PRISM(SPDF).
 Compute integral first derivatives, UseDBF=F ICtDFT=           0.
 Calling FoFJK, ICntrl=      2127 FMM=F ISym2X=0 I1Cent= 0 IOpClX= 0 NMat=1 NMatS=1 NMatT=0.
 FoFJK:  IHMeth= 1 ICntrl=    2127 DoSepK=F KAlg= 0 I1Cent=           0 FoldK=F
 IRaf=         0 NMat=       1 IRICut=       1 DoRegI=T DoRafI=F ISym2E= 0 IDoP0=0 IntGTp=1.
 FoFCou: FMM=F IPFlag=           0 FMFlag=      100000 FMFlg1=         800
         NFxFlg=           0 DoJE=F BraDBF=F KetDBF=F FulRan=T
         wScrn=  0.000000 ICntrl=      2127 IOpCl=  0 I1Cent=           0 NGrid=           0
         NMat0=    1 NMatS0=      1 NMatT0=    0 NMatD0=    1 NMtDS0=    0 NMtDT0=    0
 Symmetry not used in FoFCou.
 Leave Link  703 at Fri Aug  9 22:47:08 2019, MaxMem=   671088640 cpu:              17.7 elap:               0.9
 (Enter /shared/centos7/gaussian/g16/l716.exe)
 Dipole        =-1.33649738D-08 5.27144772D-09 8.13459706D-01
 ***** Axes restored to original set *****
 -------------------------------------------------------------------
 Center     Atomic                   Forces (Hartrees/Bohr)
 Number     Number              X              Y              Z
 -------------------------------------------------------------------
      1        8           0.000516631   -0.000914170    0.000548232
      2        8          -0.001033086    0.000224768    0.000534207
      3        1          -0.000826703    0.000421275   -0.001010098
      4        1           0.001343158    0.000268127   -0.000072341
 -------------------------------------------------------------------
 Cartesian Forces:  Max     0.001343158 RMS     0.000739862
 Leave Link  716 at Fri Aug  9 22:47:08 2019, MaxMem=   671088640 cpu:               0.6 elap:               0.1
 (Enter /shared/centos7/gaussian/g16/l103.exe)

 GradGradGradGradGradGradGradGradGradGradGradGradGradGradGradGradGradGrad
 Berny optimization.
 FormGI is forming the generalized inverse of G from B-inverse, IUseBI=4.
 Internal  Forces:  Max     0.001816447 RMS     0.001181953
 Search for a local minimum.
 Step number   1 out of a maximum of   20 on scan point     2 out of    37
 All quantities printed in internal units (Hartrees-Bohrs-Radians)
 RMS Force = .10082D-02 SwitMx=.10000D-02 MixMth= 1
 Mixed Optimization -- RFO/linear search
 Second derivative matrix not updated -- first step.
 The second derivative matrix:
                          R1        R2        R3        A1        A2
           R1           0.37500
           R2          -0.00396   0.53030
           R3          -0.00396  -0.00014   0.53034
           A1           0.07299  -0.00300   0.00058   0.22883
           A2           0.07299   0.00058  -0.00300   0.01884   0.22883
           D1           0.00136  -0.00216  -0.00216  -0.00887  -0.00887
                          D1
           D1           0.00909
 ITU=  0
     Eigenvalues ---    0.19006   0.20995   0.43223   0.53049   0.53057
     Eigenvalues --- 1000.00000
 RFO step:  Lambda=-2.28922434D-05 EMin= 1.90057226D-01
 Linear search not attempted -- first point.
 Iteration  1 RMS(Cart)=  0.00530872 RMS(Int)=  0.00001649
 Iteration  2 RMS(Cart)=  0.00001387 RMS(Int)=  0.00000000
 Iteration  3 RMS(Cart)=  0.00000000 RMS(Int)=  0.00000000
 Iteration  1 RMS(Cart)=  0.00000000 RMS(Int)=  0.00000000
 ITry= 1 IFail=0 DXMaxC= 7.78D-03 DCOld= 1.00D+10 DXMaxT= 3.00D-01 DXLimC= 3.00D+00 Rises=F
 Variable       Old X    -DE/DX   Delta X   Delta X   Delta X     New X
                                 (Linear)    (Quad)   (Total)
    R1        2.69051  -0.00006   0.00000  -0.00292  -0.00292   2.68758
    R2        1.82048   0.00034   0.00000   0.00065   0.00065   1.82113
    R3        1.82048   0.00034   0.00000   0.00065   0.00065   1.82113
    A1        1.76756   0.00156   0.00000   0.00716   0.00716   1.77472
    A2        1.76756   0.00156   0.00000   0.00716   0.00716   1.77472
    D1       -1.79092  -0.00182   0.00000   0.00000  -0.00000  -1.79092
         Item               Value     Threshold  Converged?
 Maximum Force            0.001557     0.000450     NO 
 RMS     Force            0.001008     0.000300     NO 
 Maximum Displacement     0.007776     0.001800     NO 
 RMS     Displacement     0.005305     0.001200     NO 
 Predicted change in Energy=-1.144612D-05
 Lowest energy point so far.  Saving SCF results.
 GradGradGradGradGradGradGradGradGradGradGradGradGradGradGradGradGradGrad

 Leave Link  103 at Fri Aug  9 22:47:08 2019, MaxMem=   671088640 cpu:               0.2 elap:               0.0
 (Enter /shared/centos7/gaussian/g16/l202.exe)
                          Input orientation:                          
 ---------------------------------------------------------------------
 Center     Atomic      Atomic             Coordinates (Angstroms)
 Number     Number       Type             X           Y           Z
 ---------------------------------------------------------------------
      1          8           0       -0.536690    0.471852    0.013914
      2          8           0        0.593014   -0.392048    0.002711
      3          1           0       -1.264962   -0.159268    0.018474
      4          1           0        0.880761   -0.348967    0.921438
 ---------------------------------------------------------------------
                    Distance matrix (angstroms):
                    1          2          3          4
     1  O    0.000000
     2  O    1.422209   0.000000
     3  H    0.963698   1.872567   0.000000
     4  H    1.872567   0.963698   2.335692   0.000000
 Stoichiometry    H2O2
 Framework group  C1[X(H2O2)]
 Deg. of freedom     6
 Full point group                 C1      NOp   1
 RotChk:  IX=0 Diff= 4.90D-03
 Largest Abelian subgroup         C1      NOp   1
 Largest concise Abelian subgroup C1      NOp   1
                         Standard orientation:                         
 ---------------------------------------------------------------------
 Center     Atomic      Atomic             Coordinates (Angstroms)
 Number     Number       Type             X           Y           Z
 ---------------------------------------------------------------------
      1          8           0        0.703148   -0.106078   -0.065553
      2          8           0       -0.703148    0.106078   -0.065553
      3          1           0        1.006003    0.593147    0.524427
      4          1           0       -1.006003   -0.593147    0.524428
 ---------------------------------------------------------------------
 Rotational constants (GHZ):         307.0099289          27.1720150          26.7038157
 Leave Link  202 at Fri Aug  9 22:47:08 2019, MaxMem=   671088640 cpu:               0.7 elap:               0.1
 (Enter /shared/centos7/gaussian/g16/l301.exe)
 Standard basis: CC-pVTZ (5D, 7F)
 Ernie: Thresh=  0.10000D-02 Tol=  0.10000D-05 Strict=F.
 Ernie:  6 primitive shells out of 68 were deleted.
 There are   100 symmetry adapted cartesian basis functions of A   symmetry.
 There are    88 symmetry adapted basis functions of A   symmetry.
    88 basis functions,   138 primitive gaussians,   100 cartesian basis functions
     9 alpha electrons        9 beta electrons
       nuclear repulsion energy        37.3470533752 Hartrees.
 IExCor= 4336 DFT=T Ex+Corr=M062X ExCW=0 ScaHFX=  0.540000
 ScaDFX=  1.000000  1.000000  1.000000  1.000000 ScalE2=  1.000000  1.000000
 IRadAn=      5 IRanWt=     -1 IRanGd=            0 ICorTp=0 IEmpDi=  4
 NAtoms=    4 NActive=    4 NUniq=    4 SFac= 1.00D+00 NAtFMM=   60 NAOKFM=F Big=F
 Integral buffers will be    131072 words long.
 Raffenetti 2 integral format.
 Two-electron integral symmetry is turned on.
 Leave Link  301 at Fri Aug  9 22:47:08 2019, MaxMem=   671088640 cpu:               2.0 elap:               0.1
 (Enter /shared/centos7/gaussian/g16/l302.exe)
 NPDir=0 NMtPBC=     1 NCelOv=     1 NCel=       1 NClECP=     1 NCelD=      1
         NCelK=      1 NCelE2=     1 NClLst=     1 CellRange=     0.0.
 One-electron integrals computed using PRISM.
 One-electron integral symmetry used in STVInt
 NBasis=    88 RedAO= T EigKep=  2.80D-03  NBF=    88
 NBsUse=    88 1.00D-06 EigRej= -1.00D+00 NBFU=    88
 Precomputing XC quadrature grid using
 IXCGrd= 4 IRadAn=           5 IRanWt=          -1 IRanGd=           0 AccXCQ= 0.00D+00.
 Generated NRdTot=       0 NPtTot=           0 NUsed=           0 NTot=          32
 NSgBfM=   100   100   100   100   100 MxSgAt=     4 MxSgA2=     4.
 Leave Link  302 at Fri Aug  9 22:47:08 2019, MaxMem=   671088640 cpu:               3.7 elap:               0.2
 (Enter /shared/centos7/gaussian/g16/l303.exe)
 DipDrv:  MaxL=1.
 Leave Link  303 at Fri Aug  9 22:47:08 2019, MaxMem=   671088640 cpu:               0.8 elap:               0.1
 (Enter /shared/centos7/gaussian/g16/l401.exe)
 Initial guess from the checkpoint file:  "/scratch/harms.n/gauss_scrdir/Gau-27304.chk"
 B after Tr=    -0.000000    0.000000   -0.000000
         Rot=    1.000000    0.000000   -0.000000    0.000820 Ang=   0.09 deg.
 Guess basis will be translated and rotated to current coordinates.
 JPrj=2 DoOrth=T DoCkMO=T.
 Leave Link  401 at Fri Aug  9 22:47:09 2019, MaxMem=   671088640 cpu:               1.8 elap:               0.1
 (Enter /shared/centos7/gaussian/g16/l502.exe)
 Keep R1 ints in memory in canonical form, NReq=26188250.
 FoFCou: FMM=F IPFlag=           0 FMFlag=           0 FMFlg1=           0
         NFxFlg=           0 DoJE=F BraDBF=F KetDBF=F FulRan=T
         wScrn=  0.000000 ICntrl=       600 IOpCl=  0 I1Cent=           0 NGrid=           0
         NMat0=    1 NMatS0=   3916 NMatT0=    0 NMatD0=    1 NMtDS0=    0 NMtDT0=    0
 Symmetry not used in FoFCou.
 Two-electron integral symmetry not used.
 Closed shell SCF:
 Using DIIS extrapolation, IDIIS=  1040.
 NGot=   671088640 LenX=   663396154 LenY=   663385713
 Requested convergence on RMS density matrix=1.00D-08 within 128 cycles.
 Requested convergence on MAX density matrix=1.00D-06.
 Requested convergence on             energy=1.00D-06.
 No special actions if energy rises.

 Cycle   1  Pass 1  IDiag  1:
 E= -151.548700064053    
 DIIS: error= 2.63D-04 at cycle   1 NSaved=   1.
 NSaved= 1 IEnMin= 1 EnMin= -151.548700064053     IErMin= 1 ErrMin= 2.63D-04
 ErrMax= 2.63D-04  0.00D+00 EMaxC= 1.00D-01 BMatC= 8.03D-06 BMatP= 8.03D-06
 IDIUse=3 WtCom= 9.97D-01 WtEn= 2.63D-03
 Coeff-Com:  0.100D+01
 Coeff-En:   0.100D+01
 Coeff:      0.100D+01
 Gap=     1.292 Goal=   None    Shift=    0.000
 RMSDP=2.60D-05 MaxDP=2.44D-04              OVMax= 8.32D-04

 Cycle   2  Pass 1  IDiag  1:
 E= -151.548708500931     Delta-E=       -0.000008436878 Rises=F Damp=F
 DIIS: error= 4.41D-05 at cycle   2 NSaved=   2.
 NSaved= 2 IEnMin= 2 EnMin= -151.548708500931     IErMin= 2 ErrMin= 4.41D-05
 ErrMax= 4.41D-05  0.00D+00 EMaxC= 1.00D-01 BMatC= 1.74D-07 BMatP= 8.03D-06
 IDIUse=1 WtCom= 1.00D+00 WtEn= 0.00D+00
 Coeff-Com: -0.107D+00 0.111D+01
 Coeff:     -0.107D+00 0.111D+01
 Gap=     0.439 Goal=   None    Shift=    0.000
 RMSDP=6.64D-06 MaxDP=7.13D-05 DE=-8.44D-06 OVMax= 3.12D-04

 Cycle   3  Pass 1  IDiag  1:
 E= -151.548708870994     Delta-E=       -0.000000370062 Rises=F Damp=F
 DIIS: error= 9.67D-06 at cycle   3 NSaved=   3.
 NSaved= 3 IEnMin= 3 EnMin= -151.548708870994     IErMin= 3 ErrMin= 9.67D-06
 ErrMax= 9.67D-06  0.00D+00 EMaxC= 1.00D-01 BMatC= 6.60D-09 BMatP= 1.74D-07
 IDIUse=1 WtCom= 1.00D+00 WtEn= 0.00D+00
 Coeff-Com:  0.682D-03-0.101D+00 0.110D+01
 Coeff:      0.682D-03-0.101D+00 0.110D+01
 Gap=     0.439 Goal=   None    Shift=    0.000
 RMSDP=2.08D-06 MaxDP=2.31D-05 DE=-3.70D-07 OVMax= 1.33D-04

 Cycle   4  Pass 1  IDiag  1:
 E= -151.548708896609     Delta-E=       -0.000000025615 Rises=F Damp=F
 DIIS: error= 3.81D-06 at cycle   4 NSaved=   4.
 NSaved= 4 IEnMin= 4 EnMin= -151.548708896609     IErMin= 4 ErrMin= 3.81D-06
 ErrMax= 3.81D-06  0.00D+00 EMaxC= 1.00D-01 BMatC= 1.70D-09 BMatP= 6.60D-09
 IDIUse=1 WtCom= 1.00D+00 WtEn= 0.00D+00
 Coeff-Com:  0.911D-02-0.112D+00 0.196D+00 0.907D+00
 Coeff:      0.911D-02-0.112D+00 0.196D+00 0.907D+00
 Gap=     0.439 Goal=   None    Shift=    0.000
 RMSDP=6.81D-07 MaxDP=7.26D-06 DE=-2.56D-08 OVMax= 4.78D-05

 Cycle   5  Pass 1  IDiag  1:
 E= -151.548708900176     Delta-E=       -0.000000003567 Rises=F Damp=F
 DIIS: error= 1.59D-06 at cycle   5 NSaved=   5.
 NSaved= 5 IEnMin= 5 EnMin= -151.548708900176     IErMin= 5 ErrMin= 1.59D-06
 ErrMax= 1.59D-06  0.00D+00 EMaxC= 1.00D-01 BMatC= 2.07D-10 BMatP= 1.70D-09
 IDIUse=1 WtCom= 1.00D+00 WtEn= 0.00D+00
 Coeff-Com:  0.185D-02-0.796D-02-0.905D-01 0.471D-01 0.105D+01
 Coeff:      0.185D-02-0.796D-02-0.905D-01 0.471D-01 0.105D+01
 Gap=     0.439 Goal=   None    Shift=    0.000
 RMSDP=3.27D-07 MaxDP=3.29D-06 DE=-3.57D-09 OVMax= 2.28D-05

 Cycle   6  Pass 1  IDiag  1:
 E= -151.548708900702     Delta-E=       -0.000000000526 Rises=F Damp=F
 DIIS: error= 8.41D-07 at cycle   6 NSaved=   6.
 NSaved= 6 IEnMin= 6 EnMin= -151.548708900702     IErMin= 6 ErrMin= 8.41D-07
 ErrMax= 8.41D-07  0.00D+00 EMaxC= 1.00D-01 BMatC= 6.07D-11 BMatP= 2.07D-10
 IDIUse=1 WtCom= 1.00D+00 WtEn= 0.00D+00
 Coeff-Com: -0.965D-03 0.165D-01-0.547D-01-0.168D+00 0.442D+00 0.765D+00
 Coeff:     -0.965D-03 0.165D-01-0.547D-01-0.168D+00 0.442D+00 0.765D+00
 Gap=     0.439 Goal=   None    Shift=    0.000
 RMSDP=9.98D-08 MaxDP=9.84D-07 DE=-5.26D-10 OVMax= 6.57D-06

 Cycle   7  Pass 1  IDiag  1:
 E= -151.548708900768     Delta-E=       -0.000000000066 Rises=F Damp=F
 DIIS: error= 5.18D-08 at cycle   7 NSaved=   7.
 NSaved= 7 IEnMin= 7 EnMin= -151.548708900768     IErMin= 7 ErrMin= 5.18D-08
 ErrMax= 5.18D-08  0.00D+00 EMaxC= 1.00D-01 BMatC= 1.99D-13 BMatP= 6.07D-11
 IDIUse=1 WtCom= 1.00D+00 WtEn= 0.00D+00
 Coeff-Com:  0.109D-03-0.229D-02 0.104D-01 0.213D-01-0.898D-01-0.109D+00
 Coeff-Com:  0.117D+01
 Coeff:      0.109D-03-0.229D-02 0.104D-01 0.213D-01-0.898D-01-0.109D+00
 Coeff:      0.117D+01
 Gap=     0.439 Goal=   None    Shift=    0.000
 RMSDP=1.11D-08 MaxDP=1.11D-07 DE=-6.56D-11 OVMax= 5.78D-07

 Cycle   8  Pass 1  IDiag  1:
 E= -151.548708900768     Delta-E=       -0.000000000000 Rises=F Damp=F
 DIIS: error= 5.09D-09 at cycle   8 NSaved=   8.
 NSaved= 8 IEnMin= 8 EnMin= -151.548708900768     IErMin= 8 ErrMin= 5.09D-09
 ErrMax= 5.09D-09  0.00D+00 EMaxC= 1.00D-01 BMatC= 4.82D-15 BMatP= 1.99D-13
 IDIUse=1 WtCom= 1.00D+00 WtEn= 0.00D+00
 Coeff-Com:  0.166D-04-0.288D-03 0.108D-02 0.284D-02-0.819D-02-0.129D-01
 Coeff-Com:  0.518D-01 0.966D+00
 Coeff:      0.166D-04-0.288D-03 0.108D-02 0.284D-02-0.819D-02-0.129D-01
 Coeff:      0.518D-01 0.966D+00
 Gap=     0.439 Goal=   None    Shift=    0.000
 RMSDP=9.15D-10 MaxDP=1.25D-08 DE=-2.56D-13 OVMax= 4.31D-08

 SCF Done:  E(RM062X) =  -151.548708901     A.U. after    8 cycles
            NFock=  8  Conv=0.92D-09     -V/T= 2.0045
 KE= 1.508709458574D+02 PE=-4.333167759728D+02 EE= 9.355006783944D+01
 Leave Link  502 at Fri Aug  9 22:47:10 2019, MaxMem=   671088640 cpu:              33.6 elap:               1.8
 (Enter /shared/centos7/gaussian/g16/l701.exe)
 ... and contract with generalized density number  0.
 Compute integral first derivatives.
 Leave Link  701 at Fri Aug  9 22:47:11 2019, MaxMem=   671088640 cpu:               4.0 elap:               0.2
 (Enter /shared/centos7/gaussian/g16/l702.exe)
 L702 exits ... SP integral derivatives will be done elsewhere.
 Leave Link  702 at Fri Aug  9 22:47:11 2019, MaxMem=   671088640 cpu:               0.3 elap:               0.0
 (Enter /shared/centos7/gaussian/g16/l703.exe)
 Integral derivatives from FoFJK, PRISM(SPDF).
 Compute integral first derivatives, UseDBF=F ICtDFT=           0.
 Calling FoFJK, ICntrl=      2127 FMM=F ISym2X=0 I1Cent= 0 IOpClX= 0 NMat=1 NMatS=1 NMatT=0.
 FoFJK:  IHMeth= 1 ICntrl=    2127 DoSepK=F KAlg= 0 I1Cent=           0 FoldK=F
 IRaf=         0 NMat=       1 IRICut=       1 DoRegI=T DoRafI=F ISym2E= 0 IDoP0=0 IntGTp=1.
 FoFCou: FMM=F IPFlag=           0 FMFlag=      100000 FMFlg1=         800
         NFxFlg=           0 DoJE=F BraDBF=F KetDBF=F FulRan=T
         wScrn=  0.000000 ICntrl=      2127 IOpCl=  0 I1Cent=           0 NGrid=           0
         NMat0=    1 NMatS0=      1 NMatT0=    0 NMatD0=    1 NMtDS0=    0 NMtDT0=    0
 Symmetry not used in FoFCou.
 Leave Link  703 at Fri Aug  9 22:47:12 2019, MaxMem=   671088640 cpu:              17.1 elap:               0.9
 (Enter /shared/centos7/gaussian/g16/l716.exe)
 Dipole        =-5.07549136D-08 1.08821715D-07 8.13302547D-01
 ***** Axes restored to original set *****
 -------------------------------------------------------------------
 Center     Atomic                   Forces (Hartrees/Bohr)
 Number     Number              X              Y              Z
 -------------------------------------------------------------------
      1        8           0.000099771    0.000078328    0.001033356
      2        8          -0.000646561   -0.000808209    0.000112604
      3        1          -0.000028812    0.000004621   -0.000946669
      4        1           0.000575601    0.000725260   -0.000199291
 -------------------------------------------------------------------
 Cartesian Forces:  Max     0.001033356 RMS     0.000574595
 Leave Link  716 at Fri Aug  9 22:47:12 2019, MaxMem=   671088640 cpu:               0.4 elap:               0.0
 (Enter /shared/centos7/gaussian/g16/l103.exe)

 GradGradGradGradGradGradGradGradGradGradGradGradGradGradGradGradGradGrad
 Berny optimization.
 Using GEDIIS/GDIIS optimizer.
 FormGI is forming the generalized inverse of G from B-inverse, IUseBI=4.
 Internal  Forces:  Max     0.001686127 RMS     0.000688656
 Search for a local minimum.
 Step number   2 out of a maximum of   20 on scan point     2 out of    37
 All quantities printed in internal units (Hartrees-Bohrs-Radians)
 RMS Force = .22164D-04 SwitMx=.10000D-02 MixMth= 2
 Mixed Optimization -- En-DIIS/RFO-DIIS
 Update second derivatives using D2CorX and points    1    2
 DE= -1.16D-05 DEPred=-1.14D-05 R= 1.02D+00
 TightC=F SS=  1.41D+00  RLast= 1.06D-02 DXNew= 5.0454D-01 3.1716D-02
 Trust test= 1.02D+00 RLast= 1.06D-02 DXMaxT set to 3.00D-01
 The second derivative matrix:
                          R1        R2        R3        A1        A2
           R1           0.37499
           R2          -0.00390   0.53002
           R3          -0.00390  -0.00041   0.53007
           A1           0.07322  -0.00386  -0.00029   0.22670
           A2           0.07322  -0.00029  -0.00386   0.01670   0.22670
           D1           0.00134  -0.00207  -0.00207  -0.00864  -0.00864
                          D1
           D1           0.00906
 ITU=  1  0
 Use linear search instead of GDIIS.
     Eigenvalues ---    0.18651   0.20995   0.43140   0.53011   0.53050
     Eigenvalues --- 1000.00000
 RFO step:  Lambda= 0.00000000D+00 EMin= 1.86513063D-01
 Quartic linear search produced a step of  0.02237.
 Iteration  1 RMS(Cart)=  0.00011809 RMS(Int)=  0.00000001
 Iteration  2 RMS(Cart)=  0.00000001 RMS(Int)=  0.00000000
 Iteration  1 RMS(Cart)=  0.00000000 RMS(Int)=  0.00000000
 ITry= 1 IFail=0 DXMaxC= 1.74D-04 DCOld= 1.00D+10 DXMaxT= 3.00D-01 DXLimC= 3.00D+00 Rises=F
 Variable       Old X    -DE/DX   Delta X   Delta X   Delta X     New X
                                 (Linear)    (Quad)   (Total)
    R1        2.68758  -0.00000  -0.00007  -0.00001  -0.00007   2.68751
    R2        1.82113   0.00001   0.00001   0.00001   0.00003   1.82115
    R3        1.82113   0.00001   0.00001   0.00001   0.00003   1.82115
    A1        1.77472   0.00003   0.00016  -0.00000   0.00016   1.77488
    A2        1.77472   0.00003   0.00016  -0.00000   0.00016   1.77488
    D1       -1.79092  -0.00169   0.00000   0.00000  -0.00000  -1.79092
         Item               Value     Threshold  Converged?
 Maximum Force            0.000032     0.000450     YES
 RMS     Force            0.000022     0.000300     YES
 Maximum Displacement     0.000174     0.001800     YES
 RMS     Displacement     0.000118     0.001200     YES
 Predicted change in Energy=-5.465706D-09
 Optimization completed.
    -- Stationary point found.
                           ----------------------------
                           !   Optimized Parameters   !
                           ! (Angstroms and Degrees)  !
 --------------------------                            --------------------------
 ! Name  Definition              Value          Derivative Info.                !
 --------------------------------------------------------------------------------
 ! R1    R(1,2)                  1.4222         -DE/DX =    0.0                 !
 ! R2    R(1,3)                  0.9637         -DE/DX =    0.0                 !
 ! R3    R(2,4)                  0.9637         -DE/DX =    0.0                 !
 ! A1    A(2,1,3)              101.6839         -DE/DX =    0.0                 !
 ! A2    A(1,2,4)              101.6839         -DE/DX =    0.0                 !
 ! D1    D(3,1,2,4)           -102.6123         -DE/DX =   -0.0017              !
 --------------------------------------------------------------------------------
 Lowest energy point so far.  Saving SCF results.
 Iteration  1 RMS(Cart)=  0.06502194 RMS(Int)=  0.00395972
 Iteration  2 RMS(Cart)=  0.00272959 RMS(Int)=  0.00000315
 Iteration  3 RMS(Cart)=  0.00000341 RMS(Int)=  0.00000000
 Iteration  4 RMS(Cart)=  0.00000000 RMS(Int)=  0.00000000
 Iteration  1 RMS(Cart)=  0.00000000 RMS(Int)=  0.00000000
 GradGradGradGradGradGradGradGradGradGradGradGradGradGradGradGradGradGrad

 Leave Link  103 at Fri Aug  9 22:47:12 2019, MaxMem=   671088640 cpu:               0.4 elap:               0.1
 (Enter /shared/centos7/gaussian/g16/l202.exe)
                          Input orientation:                          
 ---------------------------------------------------------------------
 Center     Atomic      Atomic             Coordinates (Angstroms)
 Number     Number       Type             X           Y           Z
 ---------------------------------------------------------------------
      1          8           0       -0.534074    0.475287   -0.022230
      2          8           0        0.613522   -0.364614   -0.009611
      3          1           0       -1.247365   -0.167347    0.061304
      4          1           0        0.840039   -0.371756    0.927074
 ---------------------------------------------------------------------
                    Distance matrix (angstroms):
                    1          2          3          4
     1  O    0.000000
     2  O    1.422171   0.000000
     3  H    0.963711   1.872657   0.000000
     4  H    1.872657   0.963711   2.269051   0.000000
 Stoichiometry    H2O2
 Framework group  C1[X(H2O2)]
 Deg. of freedom     6
 Full point group                 C1      NOp   1
 RotChk:  IX=3 Diff= 2.00D-02
 Largest Abelian subgroup         C1      NOp   1
 Largest concise Abelian subgroup C1      NOp   1
                         Standard orientation:                         
 ---------------------------------------------------------------------
 Center     Atomic      Atomic             Coordinates (Angstroms)
 Number     Number       Type             X           Y           Z
 ---------------------------------------------------------------------
      1          8           0        0.704423   -0.097109   -0.072436
      2          8           0       -0.704423    0.097109   -0.072436
      3          1           0        0.991090    0.552168    0.579485
      4          1           0       -0.991090   -0.552169    0.579485
 ---------------------------------------------------------------------
 Rotational constants (GHZ):         305.7630368          26.9841045          26.9250249
 Leave Link  202 at Fri Aug  9 22:47:12 2019, MaxMem=   671088640 cpu:               0.5 elap:               0.1
 (Enter /shared/centos7/gaussian/g16/l301.exe)
 Standard basis: CC-pVTZ (5D, 7F)
 Ernie: Thresh=  0.10000D-02 Tol=  0.10000D-05 Strict=F.
 Ernie:  6 primitive shells out of 68 were deleted.
 There are   100 symmetry adapted cartesian basis functions of A   symmetry.
 There are    88 symmetry adapted basis functions of A   symmetry.
    88 basis functions,   138 primitive gaussians,   100 cartesian basis functions
     9 alpha electrons        9 beta electrons
       nuclear repulsion energy        37.3539977361 Hartrees.
 IExCor= 4336 DFT=T Ex+Corr=M062X ExCW=0 ScaHFX=  0.540000
 ScaDFX=  1.000000  1.000000  1.000000  1.000000 ScalE2=  1.000000  1.000000
 IRadAn=      5 IRanWt=     -1 IRanGd=            0 ICorTp=0 IEmpDi=  4
 NAtoms=    4 NActive=    4 NUniq=    4 SFac= 1.00D+00 NAtFMM=   60 NAOKFM=F Big=F
 Integral buffers will be    131072 words long.
 Raffenetti 2 integral format.
 Two-electron integral symmetry is turned on.
 Leave Link  301 at Fri Aug  9 22:47:12 2019, MaxMem=   671088640 cpu:               1.4 elap:               0.1
 (Enter /shared/centos7/gaussian/g16/l302.exe)
 NPDir=0 NMtPBC=     1 NCelOv=     1 NCel=       1 NClECP=     1 NCelD=      1
         NCelK=      1 NCelE2=     1 NClLst=     1 CellRange=     0.0.
 One-electron integrals computed using PRISM.
 One-electron integral symmetry used in STVInt
 NBasis=    88 RedAO= T EigKep=  2.77D-03  NBF=    88
 NBsUse=    88 1.00D-06 EigRej= -1.00D+00 NBFU=    88
 Precomputing XC quadrature grid using
 IXCGrd= 4 IRadAn=           5 IRanWt=          -1 IRanGd=           0 AccXCQ= 0.00D+00.
 Generated NRdTot=       0 NPtTot=           0 NUsed=           0 NTot=          32
 NSgBfM=   100   100   100   100   100 MxSgAt=     4 MxSgA2=     4.
 Leave Link  302 at Fri Aug  9 22:47:12 2019, MaxMem=   671088640 cpu:               4.5 elap:               0.3
 (Enter /shared/centos7/gaussian/g16/l303.exe)
 DipDrv:  MaxL=1.
 Leave Link  303 at Fri Aug  9 22:47:12 2019, MaxMem=   671088640 cpu:               0.4 elap:               0.0
 (Enter /shared/centos7/gaussian/g16/l401.exe)
 Initial guess from the checkpoint file:  "/scratch/harms.n/gauss_scrdir/Gau-27304.chk"
 B after Tr=     0.000000    0.000000    0.000000
         Rot=    0.999998   -0.000000   -0.000000   -0.001784 Ang=  -0.20 deg.
 Guess basis will be translated and rotated to current coordinates.
 JPrj=2 DoOrth=T DoCkMO=T.
 Leave Link  401 at Fri Aug  9 22:47:12 2019, MaxMem=   671088640 cpu:               4.7 elap:               0.3
 (Enter /shared/centos7/gaussian/g16/l502.exe)
 Keep R1 ints in memory in canonical form, NReq=26188250.
 FoFCou: FMM=F IPFlag=           0 FMFlag=           0 FMFlg1=           0
         NFxFlg=           0 DoJE=F BraDBF=F KetDBF=F FulRan=T
         wScrn=  0.000000 ICntrl=       600 IOpCl=  0 I1Cent=           0 NGrid=           0
         NMat0=    1 NMatS0=   3916 NMatT0=    0 NMatD0=    1 NMtDS0=    0 NMtDT0=    0
 Symmetry not used in FoFCou.
 Two-electron integral symmetry not used.
 Closed shell SCF:
 Using DIIS extrapolation, IDIIS=  1040.
 NGot=   671088640 LenX=   663396154 LenY=   663385713
 Requested convergence on RMS density matrix=1.00D-08 within 128 cycles.
 Requested convergence on MAX density matrix=1.00D-06.
 Requested convergence on             energy=1.00D-06.
 No special actions if energy rises.

 Cycle   1  Pass 1  IDiag  1:
 E= -151.546466811053    
[...]
 Coeff-Com:  0.171D-04-0.288D-03 0.118D-02 0.285D-02-0.680D-02-0.135D-01
 Coeff-Com:  0.358D-01 0.981D+00
 Coeff:      0.171D-04-0.288D-03 0.118D-02 0.285D-02-0.680D-02-0.135D-01
 Coeff:      0.358D-01 0.981D+00
 Gap=     0.433 Goal=   None    Shift=    0.000
 RMSDP=1.04D-09 MaxDP=1.23D-08 DE= 8.53D-13 OVMax= 5.37D-08

 SCF Done:  E(RM062X) =  -151.548850500     A.U. after    8 cycles
            NFock=  8  Conv=0.10D-08     -V/T= 2.0045
 KE= 1.508714203618D+02 PE=-4.332885661334D+02 EE= 9.353933454129D+01
 Leave Link  502 at Fri Aug  9 22:50:39 2019, MaxMem=   671088640 cpu:              23.9 elap:               1.2
 (Enter /shared/centos7/gaussian/g16/l701.exe)
 ... and contract with generalized density number  0.
 Compute integral first derivatives.
 Leave Link  701 at Fri Aug  9 22:50:39 2019, MaxMem=   671088640 cpu:               4.4 elap:               0.2
 (Enter /shared/centos7/gaussian/g16/l702.exe)
 L702 exits ... SP integral derivatives will be done elsewhere.
 Leave Link  702 at Fri Aug  9 22:50:39 2019, MaxMem=   671088640 cpu:               0.6 elap:               0.1
 (Enter /shared/centos7/gaussian/g16/l703.exe)
 Integral derivatives from FoFJK, PRISM(SPDF).
 Compute integral first derivatives, UseDBF=F ICtDFT=           0.
 Calling FoFJK, ICntrl=      2127 FMM=F ISym2X=1 I1Cent= 0 IOpClX= 0 NMat=1 NMatS=1 NMatT=0.
 FoFJK:  IHMeth= 1 ICntrl=    2127 DoSepK=F KAlg= 0 I1Cent=           0 FoldK=F
 IRaf=         0 NMat=       1 IRICut=       1 DoRegI=T DoRafI=F ISym2E= 1 IDoP0=0 IntGTp=1.
 FoFCou: FMM=F IPFlag=           0 FMFlag=      100000 FMFlg1=         800
         NFxFlg=           0 DoJE=F BraDBF=F KetDBF=F FulRan=T
         wScrn=  0.000000 ICntrl=      2127 IOpCl=  0 I1Cent=           0 NGrid=           0
         NMat0=    1 NMatS0=      1 NMatT0=    0 NMatD0=    1 NMtDS0=    0 NMtDT0=    0
 Petite list used in FoFCou.
 Leave Link  703 at Fri Aug  9 22:50:40 2019, MaxMem=   671088640 cpu:              13.6 elap:               0.7
 (Enter /shared/centos7/gaussian/g16/l716.exe)
 Dipole        = 0.00000000D+00 1.55431223D-15 7.25502069D-01
 ***** Axes restored to original set *****
 -------------------------------------------------------------------
 Center     Atomic                   Forces (Hartrees/Bohr)
 Number     Number              X              Y              Z
 -------------------------------------------------------------------
      1        8           0.000010193    0.000010612    0.000019877
      2        8          -0.000015016   -0.000017051   -0.000009769
      3        1          -0.000017474    0.000010478   -0.000009919
      4        1           0.000022297   -0.000004040   -0.000000190
 -------------------------------------------------------------------
 Cartesian Forces:  Max     0.000022297 RMS     0.000013694
 Leave Link  716 at Fri Aug  9 22:50:40 2019, MaxMem=   671088640 cpu:               0.9 elap:               0.1
 (Enter /shared/centos7/gaussian/g16/l103.exe)

 GradGradGradGradGradGradGradGradGradGradGradGradGradGradGradGradGradGrad
 Berny optimization.
 Using GEDIIS/GDIIS optimizer.
 FormGI is forming the generalized inverse of G from B-inverse, IUseBI=4.
 Internal  Forces:  Max     0.000032412 RMS     0.000020639
 Search for a local minimum.
 Step number   2 out of a maximum of   20 on scan point    37 out of    37
 All quantities printed in internal units (Hartrees-Bohrs-Radians)
 RMS Force = .22608D-04 SwitMx=.10000D-02 MixMth= 2
 Mixed Optimization -- En-DIIS/RFO-DIIS
 Update second derivatives using D2CorX and points    1    2
 DE= -1.11D-05 DEPred=-1.09D-05 R= 1.02D+00
 TightC=F SS=  1.41D+00  RLast= 1.04D-02 DXNew= 5.0454D-01 3.1124D-02
 Trust test= 1.02D+00 RLast= 1.04D-02 DXMaxT set to 3.00D-01
 The second derivative matrix:
                          R1        R2        R3        A1        A2
           R1           0.37104
           R2          -0.00347   0.53064
           R3          -0.00347   0.00020   0.53068
           A1           0.07267  -0.00281   0.00076   0.22865
           A2           0.07267   0.00076  -0.00281   0.01865   0.22865
           D1           0.03632  -0.00898  -0.00898   0.00108   0.00109
                          D1
           D1           0.01247
 ITU=  1  0
 Use linear search instead of GDIIS.
     Eigenvalues ---    0.18921   0.20995   0.42886   0.53050   0.53114
     Eigenvalues --- 1000.00000
 RFO step:  Lambda= 0.00000000D+00 EMin= 1.89206026D-01
 Quartic linear search produced a step of  0.02206.
 Iteration  1 RMS(Cart)=  0.00011278 RMS(Int)=  0.00000001
 Iteration  2 RMS(Cart)=  0.00000001 RMS(Int)=  0.00000000
 Iteration  1 RMS(Cart)=  0.00000000 RMS(Int)=  0.00000000
 ITry= 1 IFail=0 DXMaxC= 1.66D-04 DCOld= 1.00D+10 DXMaxT= 3.00D-01 DXLimC= 3.00D+00 Rises=F
 ClnCor:  largest displacement from symmetrization is 6.28D-10 for atom     4.
 Variable       Old X    -DE/DX   Delta X   Delta X   Delta X     New X
                                 (Linear)    (Quad)   (Total)
    R1        2.69056   0.00000  -0.00008   0.00002  -0.00006   2.69050
    R2        1.82044   0.00002   0.00001   0.00001   0.00003   1.82047
    R3        1.82044   0.00002   0.00001   0.00001   0.00003   1.82047
    A1        1.76740   0.00003   0.00015  -0.00000   0.00015   1.76755
    A2        1.76740   0.00003   0.00015  -0.00000   0.00015   1.76755
    D1       -1.96546   0.00000  -0.00000   0.00000   0.00000  -1.96546
         Item               Value     Threshold  Converged?
 Maximum Force            0.000032     0.000450     YES
 RMS     Force            0.000023     0.000300     YES
 Maximum Displacement     0.000166     0.001800     YES
 RMS     Displacement     0.000113     0.001200     YES
 Predicted change in Energy=-5.222934D-09
 Optimization completed.
    -- Stationary point found.
                           ----------------------------
                           !   Optimized Parameters   !
                           ! (Angstroms and Degrees)  !
 --------------------------                            --------------------------
 ! Name  Definition              Value          Derivative Info.                !
 --------------------------------------------------------------------------------
 ! R1    R(1,2)                  1.4238         -DE/DX =    0.0                 !
 ! R2    R(1,3)                  0.9633         -DE/DX =    0.0                 !
 ! R3    R(2,4)                  0.9633         -DE/DX =    0.0                 !
 ! A1    A(2,1,3)              101.2646         -DE/DX =    0.0                 !
 ! A2    A(1,2,4)              101.2646         -DE/DX =    0.0                 !
 ! D1    D(3,1,2,4)           -112.6123         -DE/DX =    0.0                 !
 --------------------------------------------------------------------------------
 Lowest energy point so far.  Saving SCF results.
 Summary of Optimized Potential Surface Scan (add -151.0 to energies):
                           1         2         3         4         5
     Eigenvalues --    -0.54885  -0.54871  -0.54825  -0.54744  -0.54628
           R1           1.42377   1.42221   1.42115   1.42083   1.42123
           R2           0.96336   0.96370   0.96403   0.96426   0.96436
           R3           0.96335   0.96370   0.96403   0.96426   0.96436
           A1         101.27576 101.68389 102.11586 102.55107 103.00882
           A2         101.27546 101.68389 102.11587 102.55104 103.00882
           D1        -112.61233-102.61233 -92.61233 -82.61233 -72.61233
                           6         7         8         9        10
     Eigenvalues --    -0.54482  -0.54315  -0.54143  -0.53980  -0.53844
           R1           1.42231   1.42401   1.42597   1.42801   1.42984
           R2           0.96434   0.96414   0.96385   0.96352   0.96320
           R3           0.96434   0.96414   0.96385   0.96352   0.96320
           A1         103.49249 103.97898 104.47799 104.93764 105.31601
           A2         103.49253 103.97897 104.47799 104.93764 105.31601
           D1         -62.61233 -52.61233 -42.61233 -32.61233 -22.61233
                          11        12        13        14        15
     Eigenvalues --    -0.53749  -0.53706  -0.53719  -0.53788  -0.53904
           R1           1.43114   1.43173   1.43174   1.43061   1.42904
           R2           0.96297   0.96287   0.96287   0.96307   0.96335
           R3           0.96297   0.96287   0.96287   0.96307   0.96335
           A1         105.58054 105.70583 105.70540 105.47200 105.14613
           A2         105.58054 105.70583 105.70540 105.47200 105.14613
           D1         -12.61233  -2.61233   7.38767  17.38767  27.38767
                          16        17        18        19        20
     Eigenvalues --    -0.54055  -0.54225  -0.54397  -0.54555  -0.54688
           R1           1.42706   1.42502   1.42312   1.42170   1.42093
           R2           0.96368   0.96400   0.96425   0.96436   0.96433
           R3           0.96368   0.96400   0.96425   0.96436   0.96433
           A1         104.72834 104.23884 103.75050 103.26001 102.78694
           A2         104.72834 104.23884 103.75050 103.26001 102.78694
           D1          37.38767  47.38767  57.38767  67.38767  77.38767
                          21        22        23        24        25
     Eigenvalues --    -0.54787  -0.54851  -0.54882  -0.54882  -0.54862
           R1           1.42086   1.42155   1.42287   1.42468   1.42671
           R2           0.96417   0.96388   0.96354   0.96316   0.96282
           R3           0.96417   0.96388   0.96354   0.96316   0.96282
           A1         102.34417 101.90701 101.48478 101.07073 100.68457
           A2         102.34417 101.90701 101.48478 101.07073 100.68457
           D1          87.38767  97.38767 107.38767 117.38767 127.38767
                          26        27        28        29        30
     Eigenvalues --    -0.54828  -0.54790  -0.54755  -0.54730  -0.54718
           R1           1.42877   1.43067   1.43216   1.43318   1.43317
           R2           0.96254   0.96232   0.96218   0.96209   0.96210
           R3           0.96254   0.96232   0.96218   0.96209   0.96210
           A1         100.33433 100.03370  99.80441  99.65384  99.65577
           A2         100.33433 100.03370  99.80441  99.65384  99.65577
           D1         137.38767 147.38767 157.38767 167.38767 177.38767
                          31        32        33        34        35
     Eigenvalues --    -0.54722  -0.54740  -0.54771  -0.54808  -0.54845
           R1           1.43364   1.43348   1.43151   1.42980   1.42779
           R2           0.96206   0.96207   0.96224   0.96242   0.96267
           R3           0.96206   0.96207   0.96224   0.96242   0.96267
           A1          99.58586  99.60940  99.90580 100.17025 100.49828
           A2          99.58586  99.60940  99.90580 100.17025 100.49828
           D1        -172.61233-162.61233-152.61233-142.61233-132.61233
                          36        37
     Eigenvalues --    -0.54874  -0.54885
           R1           1.42573   1.42378
           R2           0.96297   0.96333
           R3           0.96297   0.96333
           A1         100.86465 101.26456
           A2         100.86465 101.26456
           D1        -122.61233-112.61233
 Largest change from initial coordinates is atom    3       1.820 Angstoms.
 GradGradGradGradGradGradGradGradGradGradGradGradGradGradGradGradGradGrad

 Leave Link  103 at Fri Aug  9 22:50:40 2019, MaxMem=   671088640 cpu:               0.6 elap:               0.1
 (Enter /shared/centos7/gaussian/g16/l202.exe)
                          Input orientation:                          
 ---------------------------------------------------------------------
 Center     Atomic      Atomic             Coordinates (Angstroms)
 Number     Number       Type             X           Y           Z
 ---------------------------------------------------------------------
      1          8           0       -0.786790   -0.343087    0.087463
      2          8           0        0.427178   -0.132325    0.800914
      3          1           0       -1.038911    0.561746   -0.126370
      4          1           0        1.070647   -0.514764    0.194531
 ---------------------------------------------------------------------
                    Distance matrix (angstroms):
                    1          2          3          4
     1  O    0.000000
     2  O    1.423781   0.000000
     3  H    0.963333   1.868424   0.000000
     4  H    1.868424   0.963333   2.389997   0.000000
 Stoichiometry    H2O2
 Framework group  C2[X(H2O2)]
 Deg. of freedom     4
 Full point group                 C2      NOp   2
 RotChk:  IX=0 Diff= 5.22D-15
 Largest Abelian subgroup         C2      NOp   2
 Largest concise Abelian subgroup C2      NOp   2
                         Standard orientation:                         
 ---------------------------------------------------------------------
 Center     Atomic      Atomic             Coordinates (Angstroms)
 Number     Number       Type             X           Y           Z
 ---------------------------------------------------------------------
      1          8           0        0.000000    0.711890   -0.058235
      2          8           0       -0.000000   -0.711890   -0.058235
      3          1           0       -0.786066    0.900067    0.465883
      4          1           0        0.786066   -0.900067    0.465883
 ---------------------------------------------------------------------
 Rotational constants (GHZ):         307.2730644          27.3362731          26.4728702
 Leave Link  202 at Fri Aug  9 22:50:40 2019, MaxMem=   671088640 cpu:               0.2 elap:               0.0
 (Enter /shared/centos7/gaussian/g16/l601.exe)
 Copying SCF densities to generalized density rwf, IOpCl= 0 IROHF=0.

 **********************************************************************

            Population analysis using the SCF density.

 **********************************************************************

 Orbital symmetries:
       Occupied  (A) (B) (A) (B) (A) (B) (A) (A) (B)
       Virtual   (A) (B) (B) (B) (A) (A) (B) (A) (B) (B) (A) (A)
                 (B) (B) (A) (B) (A) (A) (B) (A) (B) (A) (A) (B)
                 (B) (A) (B) (A) (B) (B) (A) (A) (B) (B) (A) (A)
                 (B) (A) (B) (A) (B) (A) (B) (A) (B) (A) (B) (A)
                 (B) (A) (B) (A) (B) (A) (A) (B) (A) (B) (A) (B)
                 (B) (A) (B) (A) (A) (B) (B) (B) (A) (A) (B) (A)
                 (B) (A) (B) (A) (B) (A) (B)
 The electronic state is 1-A.
 Alpha  occ. eigenvalues --  -19.68162 -19.68145  -1.26080  -1.01281  -0.61620
 Alpha  occ. eigenvalues --   -0.58649  -0.51252  -0.40343  -0.36728
 Alpha virt. eigenvalues --    0.06536   0.06766   0.14789   0.43077   0.44566
 Alpha virt. eigenvalues --    0.54259   0.54342   0.61136   0.64480   0.68235
 Alpha virt. eigenvalues --    0.70888   0.72767   0.73663   0.86083   0.86546
 Alpha virt. eigenvalues --    1.11206   1.13709   1.34485   1.42549   1.47880
 Alpha virt. eigenvalues --    1.56267   1.76930   1.85508   1.86114   1.92526
 Alpha virt. eigenvalues --    1.97692   2.12214   2.18071   2.26950   2.54534
 Alpha virt. eigenvalues --    2.65606   3.17080   3.21400   3.28502   3.29636
 Alpha virt. eigenvalues --    3.39119   3.47124   3.48293   3.58666   3.67530
 Alpha virt. eigenvalues --    3.70965   3.72189   3.78695   3.86296   3.94876
 Alpha virt. eigenvalues --    4.06079   4.12889   4.19396   4.35726   4.46457
 Alpha virt. eigenvalues --    4.50762   4.78585   4.85328   4.98604   5.04280
 Alpha virt. eigenvalues --    5.16493   5.29450   5.57253   5.88679   5.89316
 Alpha virt. eigenvalues --    6.15742   6.29915   6.35067   6.35639   6.38455
 Alpha virt. eigenvalues --    6.40228   6.59172   6.60280   6.60759   6.69768
 Alpha virt. eigenvalues --    6.72071   6.77476   6.88528   7.06922   7.11248
 Alpha virt. eigenvalues --    7.49884   7.61706  10.54594  11.16516
          Condensed to atoms (all electrons):
               1          2          3          4
     1  O    7.920608   0.061550   0.315151  -0.027562
     2  O    0.061550   7.920608  -0.027562   0.315151
     3  H    0.315151  -0.027562   0.444896  -0.002231
     4  H   -0.027562   0.315151  -0.002231   0.444896
 Mulliken charges:
               1
     1  O   -0.269746
     2  O   -0.269746
     3  H    0.269746
     4  H    0.269746
 Sum of Mulliken charges =  -0.00000
 Mulliken charges with hydrogens summed into heavy atoms:
               1
     1  O   -0.000000
     2  O   -0.000000
 Electronic spatial extent (au):  <R**2>=             64.9826
 Charge=             -0.0000 electrons
 Dipole moment (field-independent basis, Debye):
    X=             -0.0000    Y=              0.0000    Z=              1.8440  Tot=              1.8440
 Quadrupole moment (field-independent basis, Debye-Ang):
   XX=             -9.5562   YY=            -11.2656   ZZ=            -11.5710
   XY=             -2.9466   XZ=              0.0000   YZ=             -0.0000
 Traceless Quadrupole moment (field-independent basis, Debye-Ang):
   XX=              1.2414   YY=             -0.4680   ZZ=             -0.7734
   XY=             -2.9466   XZ=              0.0000   YZ=             -0.0000
 Octapole moment (field-independent basis, Debye-Ang**2):
  XXX=              0.0000  YYY=              0.0000  ZZZ=              1.0961  XYY=             -0.0000
  XXY=              0.0000  XXZ=              1.4844  XZZ=              0.0000  YZZ=             -0.0000
  YYZ=              1.9616  XYZ=             -1.6774
 Hexadecapole moment (field-independent basis, Debye-Ang**3):
 XXXX=             -9.9066 YYYY=            -43.2751 ZZZZ=            -10.3615 XXXY=             -0.2702
 XXXZ=              0.0000 YYYX=             -1.0920 YYYZ=             -0.0000 ZZZX=              0.0000
 ZZZY=             -0.0000 XXYY=             -7.9940 XXZZ=             -3.0209 YYZZ=             -9.4219
 XXYZ=             -0.0000 YYXZ=              0.0000 ZZXY=             -0.0875
 N-N= 3.732896073071D+01 E-N=-4.332885661817D+02  KE= 1.508714203618D+02
 Symmetry A    KE= 7.726172881802D+01
 Symmetry B    KE= 7.360969154383D+01
 No NMR shielding tensors so no spin-rotation constants.
 Leave Link  601 at Fri Aug  9 22:50:41 2019, MaxMem=   671088640 cpu:               3.8 elap:               0.2
 (Enter /shared/centos7/gaussian/g16/l9999.exe)
 1\1\GINC-C0215\Scan\RM062X\CC-pVTZ\H2O2\HARMS.N\09-Aug-2019\0\\#p m062
 x/cc-pVTZ Opt=(CalcFC,ModRedun)\\Gaussian input prepared by ASE\\0,1\O
 ,-0.7867903734,-0.3430865948,0.0874628103\O,0.4271779122,-0.1323254232
 ,0.8009137977\H,-1.0389113946,0.5617458223,-0.1263704714\H,1.070646578
 8,-0.5147642553,0.1945310805\\Version=EM64L-G16RevA.03\State=1-A\HF=-1
 51.5488518,-151.5487089,-151.5482538,-151.547438,-151.5462778,-151.544
 8193,-151.5431526,-151.5414267,-151.539797,-151.5384351,-151.5374854,-
 151.5370553,-151.5371913,-151.537879,-151.5390425,-151.5405512,-151.54
 22496,-151.5439657,-151.5455452,-151.5468759,-151.5478719,-151.5485125
 ,-151.5488157,-151.5488245,-151.5486178,-151.5482808,-151.5478994,-151
 .5475495,-151.547296,-151.5471771,-151.5472153,-151.5474007,-151.54770
 91,-151.5480812,-151.5484528,-151.5487389,-151.5488505\RMSD=6.347e-09,
 9.154e-10,9.443e-09,6.995e-09,9.945e-09,2.108e-09,6.476e-09,2.942e-09,
 2.555e-09,9.595e-09,6.706e-09,3.080e-09,1.115e-09,4.983e-09,8.246e-09,
 2.494e-09,2.972e-09,2.862e-09,2.277e-09,8.045e-09,6.702e-09,8.294e-09,
 1.024e-09,1.274e-09,1.373e-09,1.480e-09,1.626e-09,1.659e-09,8.922e-09,
 1.663e-09,1.800e-09,1.877e-09,1.254e-09,1.346e-09,1.315e-09,1.184e-09,
 1.041e-09\PG=C02 [X(H2O2)]\\@


 SCIENCE IS LONG AND LIFE IS SHORT.

                     DON MOSER IN THE FEBRUARY 1979 SMITHSONIAN
 Job cpu time:       0 days  1 hours  9 minutes 30.9 seconds.
 Elapsed time:       0 days  0 hours  3 minutes 49.8 seconds.
 File lengths (MBytes):  RWF=    272 Int=      0 D2E=      0 Chk=     32 Scr=     32
 Normal termination of Gaussian 16 at Fri Aug  9 22:50:41 2019.
