 Entering Gaussian System, Link 0=g16
 Initial command:
 /shared/centos7/gaussian/g16/l1.exe "/scratch/harms.n/gauss_scrdir/Gau-15041.inp" -scrdir="/scratch/harms.n/gauss_scrdir/"
 Entering Link 1 = /shared/centos7/gaussian/g16/l1.exe PID=     15042.
  
 Copyright (c) 1988,1990,1992,1993,1995,1998,2003,2009,2016,
            Gaussian, Inc.  All Rights Reserved.
  
 This is part of the Gaussian(R) 16 program.  It is based on
 the Gaussian(R) 09 system (copyright 2009, Gaussian, Inc.),
 the Gaussian(R) 03 system (copyright 2003, Gaussian, Inc.),
 the Gaussian(R) 98 system (copyright 1998, Gaussian, Inc.),
 the Gaussian(R) 94 system (copyright 1995, Gaussian, Inc.),
 the Gaussian 92(TM) system (copyright 1992, Gaussian, Inc.),
 the Gaussian 90(TM) system (copyright 1990, Gaussian, Inc.),
 the Gaussian 88(TM) system (copyright 1988, Gaussian, Inc.),
 the Gaussian 86(TM) system (copyright 1986, Carnegie Mellon
 University), and the Gaussian 82(TM) system (copyright 1983,
 Carnegie Mellon University). Gaussian is a federally registered
 trademark of Gaussian, Inc.
  
 This software contains proprietary and confidential information,
 including trade secrets, belonging to Gaussian, Inc.
  
 This software is provided under written license and may be
 used, copied, transmitted, or stored only in accord with that
 written license.
  
 The following legend is applicable only to US Government
 contracts under FAR:
  
                    RESTRICTED RIGHTS LEGEND
  
 Use, reproduction and disclosure by the US Government is
 subject to restrictions as set forth in subparagraphs (a)
 and (c) of the Commercial Computer Software - Restricted
 Rights clause in FAR 52.227-19.
  
 Gaussian, Inc.
 340 Quinnipiac St., Bldg. 40, Wallingford CT 06492
  
  
 ---------------------------------------------------------------
 Warning -- This program may not be used in any manner that
 competes with the business of Gaussian, Inc. or will provide
 assistance to any competitor of Gaussian, Inc.  The licensee
 of this program is prohibited from giving any competitor of
 Gaussian, Inc. access to this program.  By using this program,
 the user acknowledges that Gaussian, Inc. is engaged in the
 business of creating and licensing software in the field of
 computational chemistry and represents and warrants to the
 licensee that it is not a competitor of Gaussian, Inc. and that
 it will not use this program in any manner prohibited above.
 ---------------------------------------------------------------
  

 Cite this work as:
 Gaussian 16, Revision A.03,
 M. J. Frisch, G. W. Trucks, H. B. Schlegel, G. E. Scuseria, 
 M. A. Robb, J. R. Cheeseman, G. Scalmani, V. Barone, 
 G. A. Petersson, H. Nakatsuji, X. Li, M. Caricato, A. V. Marenich, 
 J. Bloino, B. G. Janesko, R. Gomperts, B. Mennucci, H. P. Hratchian, 
 J. V. Ortiz, A. F. Izmaylov, J. L. Sonnenberg, D. Williams-Young, 
 F. Ding, F. Lipparini, F. Egidi, J. Goings, B. Peng, A. Petrone, 
 T. Henderson, D. Ranasinghe, V. G. Zakrzewski, J. Gao, N. Rega, 
 G. Zheng, W. Liang, M. Hada, M. Ehara, K. Toyota, R. Fukuda, 
 J. Hasegawa, M. Ishida, T. Nakajima, Y. Honda, O. Kitao, H. Nakai, 
 T. Vreven, K. Throssell, J. A. Montgomery, Jr., J. E. Peralta, 
 F. Ogliaro, M. J. Bearpark, J. J. Heyd, E. N. Brothers, K. N. Kudin, 
 V. N. Staroverov, T. A. Keith, R. Kobayashi, J. Normand, 
 K. Raghavachari, A. P. Rendell, J. C. Burant, S. S. Iyengar, 
 J. Tomasi, M. Cossi, J. M. Millam, M. Klene, C. Adamo, R. Cammi, 
 J. W. Ochterski, R. L. Martin, K. Morokuma, O. Farkas, 
 J. B. Foresman, and D. J. Fox, Gaussian, Inc., Wallingford CT, 2016.
 
 ******************************************
 Gaussian 16:  EM64L-G16RevA.03 25-Dec-2016
                23-May-2019 
 ******************************************
 %nprocshared=20
 Will use up to   20 processors via shared memory.
 %mem=5GB
 ----------------------------------------------------------------------
 #p m062x/cc-pVTZ opt=(calcfc,maxcycles=900) freq IOP(7/33=1,2/16=3) sc
 f=(maxcycle=900)
 ----------------------------------------------------------------------
 1/6=900,10=4,18=20,19=15,26=3,38=1/1,3;
 2/9=110,12=2,16=3,17=6,18=5,40=1/2;
 3/5=16,6=1,11=2,25=1,30=1,71=2,74=-55,140=1/1,2,3;
 4//1;
 5/5=2,7=900,38=5/2;
 8/6=4,10=90,11=11/1;
 11/6=1,8=1,9=11,15=111,16=1/1,2,10;
 10/6=1,13=1/2;
 6/7=2,8=2,9=2,10=2,28=1/1;
 7/10=1,18=20,25=1,33=1/1,2,3,16;
 1/6=900,10=4,18=20,19=15,26=3/3(2);
 2/9=110,16=3/2;
 99//99;
 2/9=110,16=3/2;
 3/5=16,6=1,11=2,25=1,30=1,71=1,74=-55/1,2,3;
 4/5=5,16=3,69=1/1;
 5/5=2,7=900,38=5/2;
 7/33=1/1,2,3,16;
 1/6=900,18=20,19=15,26=3/3(-5);
 2/9=110,16=3/2;
 6/7=2,8=2,9=2,10=2,19=2,28=1/1;
 99/9=1/99;
 Leave Link    1 at Thu May 23 01:50:37 2019, MaxMem=   671088640 cpu:              54.6 elap:               2.9
 (Enter /shared/centos7/gaussian/g16/l101.exe)
 ------------------------------
 Gaussian input prepared by ASE
 ------------------------------
 Symbolic Z-matrix:
 Charge =  0 Multiplicity = 1
 O                     1.52579   0.44081  -0.20536 
 C                     0.53636  -0.45793   0.12404 
 C                     1.05948  -1.88299   0.09852 
 H                     0.12949  -0.23043   1.14136 
 H                    -0.31991  -0.3642   -0.58036 
 H                     1.66673  -2.09719   0.99799 
 H                     0.2344   -2.60375   0.06475 
 H                     1.7054   -2.04844  -0.79867 
 H                     1.13871   1.34316  -0.17812 
 
 ITRead=  0  0  0  0  0  0  0  0  0
 MicOpt= -1 -1 -1 -1 -1 -1 -1 -1 -1
 NAtoms=      9 NQM=        9 NQMF=       0 NMMI=      0 NMMIF=      0
                NMic=       0 NMicF=      0.
                    Isotopes and Nuclear Properties:
 (Nuclear quadrupole moments (NQMom) in fm**2, nuclear magnetic moments (NMagM)
  in nuclear magnetons)

  Atom         1           2           3           4           5           6           7           8           9
 IAtWgt=          16          12          12           1           1           1           1           1           1
 AtmWgt=  15.9949146  12.0000000  12.0000000   1.0078250   1.0078250   1.0078250   1.0078250   1.0078250   1.0078250
 NucSpn=           0           0           0           1           1           1           1           1           1
 AtZEff=  -0.0000000  -0.0000000  -0.0000000  -0.0000000  -0.0000000  -0.0000000  -0.0000000  -0.0000000  -0.0000000
 NQMom=    0.0000000   0.0000000   0.0000000   0.0000000   0.0000000   0.0000000   0.0000000   0.0000000   0.0000000
 NMagM=    0.0000000   0.0000000   0.0000000   2.7928460   2.7928460   2.7928460   2.7928460   2.7928460   2.7928460
 AtZNuc=   8.0000000   6.0000000   6.0000000   1.0000000   1.0000000   1.0000000   1.0000000   1.0000000   1.0000000
 Leave Link  101 at Thu May 23 01:50:37 2019, MaxMem=   671088640 cpu:               5.5 elap:               0.3
 (Enter /shared/centos7/gaussian/g16/l103.exe)

 GradGradGradGradGradGradGradGradGradGradGradGradGradGradGradGradGradGrad
 Berny optimization.
 Initialization pass.
                           ----------------------------
                           !    Initial Parameters    !
                           ! (Angstroms and Degrees)  !
 --------------------------                            --------------------------
 ! Name  Definition              Value          Derivative Info.                !
 --------------------------------------------------------------------------------
 ! R1    R(1,2)                  1.3767         calculate D2E/DX2 analytically  !
 ! R2    R(1,9)                  0.9822         calculate D2E/DX2 analytically  !
 ! R3    R(2,3)                  1.5183         calculate D2E/DX2 analytically  !
 ! R4    R(2,4)                  1.119          calculate D2E/DX2 analytically  !
 ! R5    R(2,5)                  1.1127         calculate D2E/DX2 analytically  !
 ! R6    R(3,6)                  1.1062         calculate D2E/DX2 analytically  !
 ! R7    R(3,7)                  1.0961         calculate D2E/DX2 analytically  !
 ! R8    R(3,8)                  1.1178         calculate D2E/DX2 analytically  !
 ! A1    A(2,1,9)              108.0513         calculate D2E/DX2 analytically  !
 ! A2    A(1,2,3)              111.1679         calculate D2E/DX2 analytically  !
 ! A3    A(1,2,4)              110.2504         calculate D2E/DX2 analytically  !
 ! A4    A(1,2,5)              110.2795         calculate D2E/DX2 analytically  !
 ! A5    A(3,2,4)              109.3526         calculate D2E/DX2 analytically  !
 ! A6    A(3,2,5)              109.4856         calculate D2E/DX2 analytically  !
 ! A7    A(4,2,5)              106.1757         calculate D2E/DX2 analytically  !
 ! A8    A(2,3,6)              110.9298         calculate D2E/DX2 analytically  !
 ! A9    A(2,3,7)              110.9996         calculate D2E/DX2 analytically  !
 ! A10   A(2,3,8)              110.5799         calculate D2E/DX2 analytically  !
 ! A11   A(6,3,7)              108.116          calculate D2E/DX2 analytically  !
 ! A12   A(6,3,8)              107.8645         calculate D2E/DX2 analytically  !
 ! A13   A(7,3,8)              108.235          calculate D2E/DX2 analytically  !
 ! D1    D(9,1,2,3)            179.7905         calculate D2E/DX2 analytically  !
 ! D2    D(9,1,2,4)            -58.7678         calculate D2E/DX2 analytically  !
 ! D3    D(9,1,2,5)             58.1608         calculate D2E/DX2 analytically  !
 ! D4    D(1,2,3,6)             76.5523         calculate D2E/DX2 analytically  !
 ! D5    D(1,2,3,7)           -163.2225         calculate D2E/DX2 analytically  !
 ! D6    D(1,2,3,8)            -43.08           calculate D2E/DX2 analytically  !
 ! D7    D(4,2,3,6)            -45.4127         calculate D2E/DX2 analytically  !
 ! D8    D(4,2,3,7)             74.8125         calculate D2E/DX2 analytically  !
 ! D9    D(4,2,3,8)           -165.0449         calculate D2E/DX2 analytically  !
 ! D10   D(5,2,3,6)           -161.356          calculate D2E/DX2 analytically  !
 ! D11   D(5,2,3,7)            -41.1308         calculate D2E/DX2 analytically  !
 ! D12   D(5,2,3,8)             79.0118         calculate D2E/DX2 analytically  !
 --------------------------------------------------------------------------------
 Trust Radius=3.00D-01 FncErr=1.00D-07 GrdErr=1.00D-06 EigMax=2.50D+02 EigMin=1.00D-04
 Number of steps in this run=    100 maximum allowed number of steps=    100.
 GradGradGradGradGradGradGradGradGradGradGradGradGradGradGradGradGradGrad

 Leave Link  103 at Thu May 23 01:50:38 2019, MaxMem=   671088640 cpu:               0.2 elap:               0.0
 (Enter /shared/centos7/gaussian/g16/l202.exe)
                          Input orientation:                          
 ---------------------------------------------------------------------
 Center     Atomic      Atomic             Coordinates (Angstroms)
 Number     Number       Type             X           Y           Z
 ---------------------------------------------------------------------
      1          8           0        1.525794    0.440815   -0.205362
      2          6           0        0.536356   -0.457931    0.124041
      3          6           0        1.059483   -1.882991    0.098519
      4          1           0        0.129486   -0.230433    1.141355
      5          1           0       -0.319906   -0.364195   -0.580358
      6          1           0        1.666725   -2.097192    0.997993
      7          1           0        0.234401   -2.603746    0.064752
      8          1           0        1.705403   -2.048441   -0.798672
      9          1           0        1.138713    1.343164   -0.178119
 ---------------------------------------------------------------------
                    Distance matrix (angstroms):
                    1          2          3          4          5
     1  O    0.000000
     2  C    1.376676   0.000000
     3  C    2.389532   1.518259   0.000000
     4  H    2.052778   1.119029   2.164105   0.000000
     5  H    2.048236   1.112722   2.161095   1.784417   0.000000
     6  H    2.812366   2.174558   1.106200   2.422488   3.072650
     7  H    3.318134   2.167768   1.096078   2.608198   2.395624
     8  H    2.565282   2.178943   1.117828   3.090692   2.643146
     9  H    0.982246   1.923038   3.238963   2.288178   2.281324
                    6          7          8          9
     6  H    0.000000
     7  H    1.782999   0.000000
     8  H    1.797743   1.793798   0.000000
     9  H    3.673974   4.056460   3.494168   0.000000
 Stoichiometry    C2H6O
 Framework group  C1[X(C2H6O)]
 Deg. of freedom    21
 Full point group                 C1      NOp   1
 Largest Abelian subgroup         C1      NOp   1
 Largest concise Abelian subgroup C1      NOp   1
                         Standard orientation:                         
 ---------------------------------------------------------------------
 Center     Atomic      Atomic             Coordinates (Angstroms)
 Number     Number       Type             X           Y           Z
 ---------------------------------------------------------------------
      1          8           0        1.145931   -0.394670    0.002524
      2          6           0        0.107603    0.509258   -0.002695
      3          6           0       -1.235543   -0.198595    0.000828
      4          1           0        0.174826    1.181515    0.889370
      5          1           0        0.176364    1.170463   -0.895012
      6          1           0       -1.473363   -0.589895    1.007805
      7          1           0       -2.039732    0.483368   -0.298495
      8          1           0       -1.226599   -1.061890   -0.709229
      9          1           0        1.988700    0.109822   -0.003431
 ---------------------------------------------------------------------
 Rotational constants (GHZ):          36.8490372           9.2589097           8.1713296
 Leave Link  202 at Thu May 23 01:50:38 2019, MaxMem=   671088640 cpu:               0.6 elap:               0.1
 (Enter /shared/centos7/gaussian/g16/l301.exe)
 Standard basis: CC-pVTZ (5D, 7F)
 Ernie: Thresh=  0.10000D-02 Tol=  0.10000D-05 Strict=F.
 Ernie:  9 primitive shells out of 126 were deleted.
 There are   195 symmetry adapted cartesian basis functions of A   symmetry.
 There are   174 symmetry adapted basis functions of A   symmetry.
   174 basis functions,   258 primitive gaussians,   195 cartesian basis functions
    13 alpha electrons       13 beta electrons
       nuclear repulsion energy        82.0039892631 Hartrees.
 IExCor= 4336 DFT=T Ex+Corr=M062X ExCW=0 ScaHFX=  0.540000
 ScaDFX=  1.000000  1.000000  1.000000  1.000000 ScalE2=  1.000000  1.000000
 IRadAn=      5 IRanWt=     -1 IRanGd=            0 ICorTp=0 IEmpDi=  4
 NAtoms=    9 NActive=    9 NUniq=    9 SFac= 1.00D+00 NAtFMM=   60 NAOKFM=F Big=F
 Integral buffers will be    131072 words long.
 Raffenetti 2 integral format.
 Two-electron integral symmetry is turned on.
 Leave Link  301 at Thu May 23 01:50:38 2019, MaxMem=   671088640 cpu:               1.0 elap:               0.1
 (Enter /shared/centos7/gaussian/g16/l302.exe)
 NPDir=0 NMtPBC=     1 NCelOv=     1 NCel=       1 NClECP=     1 NCelD=      1
         NCelK=      1 NCelE2=     1 NClLst=     1 CellRange=     0.0.
 One-electron integrals computed using PRISM.
 One-electron integral symmetry used in STVInt
 NBasis=   174 RedAO= T EigKep=  1.06D-03  NBF=   174
 NBsUse=   174 1.00D-06 EigRej= -1.00D+00 NBFU=   174
 Precomputing XC quadrature grid using
 IXCGrd= 4 IRadAn=           5 IRanWt=          -1 IRanGd=           0 AccXCQ= 0.00D+00.
 Generated NRdTot=       0 NPtTot=           0 NUsed=           0 NTot=          32
 NSgBfM=   195   195   195   195   195 MxSgAt=     9 MxSgA2=     9.
 Leave Link  302 at Thu May 23 01:50:38 2019, MaxMem=   671088640 cpu:               7.3 elap:               0.4
 (Enter /shared/centos7/gaussian/g16/l303.exe)
 DipDrv:  MaxL=1.
 Leave Link  303 at Thu May 23 01:50:38 2019, MaxMem=   671088640 cpu:               0.6 elap:               0.1
 (Enter /shared/centos7/gaussian/g16/l401.exe)
 ExpMin= 1.03D-01 ExpMax= 1.53D+04 ExpMxC= 5.22D+02 IAcc=3 IRadAn=         5 AccDes= 0.00D+00
 Harris functional with IExCor= 1009 and IRadAn=       5 diagonalized for initial guess.
 HarFok:  IExCor= 1009 AccDes= 0.00D+00 IRadAn=         5 IDoV= 1 UseB2=F ITyADJ=14
 ICtDFT=  3500011 ScaDFX=  1.000000  1.000000  1.000000  1.000000
 FoFCou: FMM=F IPFlag=           0 FMFlag=      100000 FMFlg1=           0
         NFxFlg=           0 DoJE=T BraDBF=F KetDBF=T FulRan=T
         wScrn=  0.000000 ICntrl=       500 IOpCl=  0 I1Cent=   200000004 NGrid=           0
         NMat0=    1 NMatS0=      1 NMatT0=    0 NMatD0=    1 NMtDS0=    0 NMtDT0=    0
 Petite list used in FoFCou.
 Harris En= -154.996021769745    
 JPrj=0 DoOrth=F DoCkMO=F.
 Leave Link  401 at Thu May 23 01:50:39 2019, MaxMem=   671088640 cpu:              11.5 elap:               0.6
 (Enter /shared/centos7/gaussian/g16/l502.exe)
 Keep R1 ints in memory in canonical form, NReq=136340328.
 FoFCou: FMM=F IPFlag=           0 FMFlag=           0 FMFlg1=           0
         NFxFlg=           0 DoJE=F BraDBF=F KetDBF=F FulRan=T
         wScrn=  0.000000 ICntrl=       600 IOpCl=  0 I1Cent=           0 NGrid=           0
         NMat0=    1 NMatS0=  15225 NMatT0=    0 NMatD0=    1 NMtDS0=    0 NMtDT0=    0
 Symmetry not used in FoFCou.
 Two-electron integral symmetry not used.
 Closed shell SCF:
 Using DIIS extrapolation, IDIIS=  1040.
 NGot=   671088640 LenX=   555098904 LenY=   555060438
 Requested convergence on RMS density matrix=1.00D-08 within 900 cycles.
 Requested convergence on MAX density matrix=1.00D-06.
 Requested convergence on             energy=1.00D-06.
 No special actions if energy rises.
 Integral accuracy reduced to 1.0D-05 until final iterations.

 Cycle   1  Pass 0  IDiag  1:
 E= -154.885880281456    
 DIIS: error= 2.89D-02 at cycle   1 NSaved=   1.
 NSaved= 1 IEnMin= 1 EnMin= -154.885880281456     IErMin= 1 ErrMin= 2.89D-02
 ErrMax= 2.89D-02  0.00D+00 EMaxC= 1.00D-01 BMatC= 1.70D-01 BMatP= 1.70D-01
 IDIUse=3 WtCom= 7.11D-01 WtEn= 2.89D-01
 Coeff-Com:  0.100D+01
 Coeff-En:   0.100D+01
 Coeff:      0.100D+01
 Gap=     0.327 Goal=   None    Shift=    0.000
 GapD=    0.327 DampG=1.000 DampE=0.500 DampFc=0.5000 IDamp=-1.
 Damping current iteration by 5.00D-01
 RMSDP=3.13D-03 MaxDP=9.14D-02              OVMax= 1.47D-01

 Cycle   2  Pass 0  IDiag  1:
 E= -154.953247941043     Delta-E=       -0.067367659586 Rises=F Damp=T
 DIIS: error= 8.19D-03 at cycle   2 NSaved=   2.
 NSaved= 2 IEnMin= 2 EnMin= -154.953247941043     IErMin= 2 ErrMin= 8.19D-03
 ErrMax= 8.19D-03  0.00D+00 EMaxC= 1.00D-01 BMatC= 1.00D-02 BMatP= 1.70D-01
 IDIUse=3 WtCom= 9.18D-01 WtEn= 8.19D-02
 Coeff-Com: -0.292D-01 0.103D+01
 Coeff-En:   0.000D+00 0.100D+01
 Coeff:     -0.268D-01 0.103D+01
 Gap=     0.413 Goal=   None    Shift=    0.000
 RMSDP=5.26D-04 MaxDP=1.09D-02 DE=-6.74D-02 OVMax= 7.63D-02

 Cycle   3  Pass 0  IDiag  1:
 E= -155.020975141522     Delta-E=       -0.067727200479 Rises=F Damp=F
 DIIS: error= 2.46D-03 at cycle   3 NSaved=   3.
 NSaved= 3 IEnMin= 3 EnMin= -155.020975141522     IErMin= 3 ErrMin= 2.46D-03
 ErrMax= 2.46D-03  0.00D+00 EMaxC= 1.00D-01 BMatC= 1.72D-03 BMatP= 1.00D-02
 IDIUse=3 WtCom= 9.75D-01 WtEn= 2.46D-02
 Coeff-Com: -0.478D-01 0.255D+00 0.793D+00
 Coeff-En:   0.000D+00 0.000D+00 0.100D+01
 Coeff:     -0.467D-01 0.249D+00 0.798D+00
 Gap=     0.399 Goal=   None    Shift=    0.000
 RMSDP=1.83D-04 MaxDP=4.86D-03 DE=-6.77D-02 OVMax= 1.01D-02

 Cycle   4  Pass 0  IDiag  1:
 E= -155.021763357043     Delta-E=       -0.000788215520 Rises=F Damp=F
 DIIS: error= 1.64D-03 at cycle   4 NSaved=   4.
 NSaved= 4 IEnMin= 4 EnMin= -155.021763357043     IErMin= 4 ErrMin= 1.64D-03
 ErrMax= 1.64D-03  0.00D+00 EMaxC= 1.00D-01 BMatC= 4.87D-04 BMatP= 1.72D-03
 IDIUse=3 WtCom= 9.84D-01 WtEn= 1.64D-02
 Coeff-Com: -0.176D-01 0.505D-01 0.384D+00 0.583D+00
 Coeff-En:   0.000D+00 0.000D+00 0.198D+00 0.802D+00
 Coeff:     -0.173D-01 0.497D-01 0.381D+00 0.586D+00
 Gap=     0.400 Goal=   None    Shift=    0.000
 RMSDP=7.05D-05 MaxDP=1.63D-03 DE=-7.88D-04 OVMax= 4.17D-03

 Cycle   5  Pass 0  IDiag  1:
 E= -155.022122179447     Delta-E=       -0.000358822404 Rises=F Damp=F
 DIIS: error= 2.18D-04 at cycle   5 NSaved=   5.
 NSaved= 5 IEnMin= 5 EnMin= -155.022122179447     IErMin= 5 ErrMin= 2.18D-04
 ErrMax= 2.18D-04  0.00D+00 EMaxC= 1.00D-01 BMatC= 6.78D-06 BMatP= 4.87D-04
 IDIUse=3 WtCom= 9.98D-01 WtEn= 2.18D-03
 Coeff-Com: -0.166D-02 0.179D-02 0.666D-01 0.163D+00 0.771D+00
 Coeff-En:   0.000D+00 0.000D+00 0.000D+00 0.000D+00 0.100D+01
 Coeff:     -0.166D-02 0.178D-02 0.664D-01 0.162D+00 0.771D+00
 Gap=     0.400 Goal=   None    Shift=    0.000
 RMSDP=9.32D-06 MaxDP=1.83D-04 DE=-3.59D-04 OVMax= 6.66D-04

 Initial convergence to 1.0D-05 achieved.  Increase integral accuracy.
 Cycle   6  Pass 1  IDiag  1:
 E= -155.022126605897     Delta-E=       -0.000004426450 Rises=F Damp=F
 DIIS: error= 3.62D-05 at cycle   1 NSaved=   1.
 NSaved= 1 IEnMin= 1 EnMin= -155.022126605897     IErMin= 1 ErrMin= 3.62D-05
 ErrMax= 3.62D-05  0.00D+00 EMaxC= 1.00D-01 BMatC= 2.98D-07 BMatP= 2.98D-07
 IDIUse=1 WtCom= 1.00D+00 WtEn= 0.00D+00
 Coeff-Com:  0.100D+01
 Coeff:      0.100D+01
 Gap=     0.400 Goal=   None    Shift=    0.000
 RMSDP=9.32D-06 MaxDP=1.83D-04 DE=-4.43D-06 OVMax= 1.66D-04

 Cycle   7  Pass 1  IDiag  1:
 E= -155.022126785367     Delta-E=       -0.000000179470 Rises=F Damp=F
 DIIS: error= 2.24D-05 at cycle   2 NSaved=   2.
 NSaved= 2 IEnMin= 2 EnMin= -155.022126785367     IErMin= 2 ErrMin= 2.24D-05
 ErrMax= 2.24D-05  0.00D+00 EMaxC= 1.00D-01 BMatC= 8.76D-08 BMatP= 2.98D-07
 IDIUse=1 WtCom= 1.00D+00 WtEn= 0.00D+00
 Coeff-Com:  0.313D+00 0.687D+00
 Coeff:      0.313D+00 0.687D+00
 Gap=     0.400 Goal=   None    Shift=    0.000
 RMSDP=1.18D-06 MaxDP=4.24D-05 DE=-1.79D-07 OVMax= 9.06D-05

 Cycle   8  Pass 1  IDiag  1:
 E= -155.022126854921     Delta-E=       -0.000000069554 Rises=F Damp=F
 DIIS: error= 8.52D-06 at cycle   3 NSaved=   3.
 NSaved= 3 IEnMin= 3 EnMin= -155.022126854921     IErMin= 3 ErrMin= 8.52D-06
 ErrMax= 8.52D-06  0.00D+00 EMaxC= 1.00D-01 BMatC= 8.37D-09 BMatP= 8.76D-08
 IDIUse=1 WtCom= 1.00D+00 WtEn= 0.00D+00
 Coeff-Com: -0.244D-01 0.208D+00 0.817D+00
 Coeff:     -0.244D-01 0.208D+00 0.817D+00
 Gap=     0.400 Goal=   None    Shift=    0.000
 RMSDP=3.41D-07 MaxDP=9.37D-06 DE=-6.96D-08 OVMax= 2.41D-05

 Cycle   9  Pass 1  IDiag  1:
 E= -155.022126862709     Delta-E=       -0.000000007788 Rises=F Damp=F
 DIIS: error= 1.17D-06 at cycle   4 NSaved=   4.
 NSaved= 4 IEnMin= 4 EnMin= -155.022126862709     IErMin= 4 ErrMin= 1.17D-06
 ErrMax= 1.17D-06  0.00D+00 EMaxC= 1.00D-01 BMatC= 2.59D-10 BMatP= 8.37D-09
 IDIUse=1 WtCom= 1.00D+00 WtEn= 0.00D+00
 Coeff-Com: -0.192D-01 0.262D-01 0.214D+00 0.779D+00
 Coeff:     -0.192D-01 0.262D-01 0.214D+00 0.779D+00
 Gap=     0.400 Goal=   None    Shift=    0.000
 RMSDP=7.50D-08 MaxDP=1.77D-06 DE=-7.79D-09 OVMax= 5.07D-06

 Cycle  10  Pass 1  IDiag  1:
 E= -155.022126862947     Delta-E=       -0.000000000238 Rises=F Damp=F
 DIIS: error= 3.37D-07 at cycle   5 NSaved=   5.
 NSaved= 5 IEnMin= 5 EnMin= -155.022126862947     IErMin= 5 ErrMin= 3.37D-07
 ErrMax= 3.37D-07  0.00D+00 EMaxC= 1.00D-01 BMatC= 2.72D-11 BMatP= 2.59D-10
 IDIUse=1 WtCom= 1.00D+00 WtEn= 0.00D+00
 Coeff-Com: -0.411D-02-0.515D-02 0.120D-01 0.233D+00 0.764D+00
 Coeff:     -0.411D-02-0.515D-02 0.120D-01 0.233D+00 0.764D+00
 Gap=     0.400 Goal=   None    Shift=    0.000
 RMSDP=3.05D-08 MaxDP=7.47D-07 DE=-2.38D-10 OVMax= 1.69D-06

 Cycle  11  Pass 1  IDiag  1:
 E= -155.022126862969     Delta-E=       -0.000000000023 Rises=F Damp=F
 DIIS: error= 1.68D-07 at cycle   6 NSaved=   6.
 NSaved= 6 IEnMin= 6 EnMin= -155.022126862969     IErMin= 6 ErrMin= 1.68D-07
 ErrMax= 1.68D-07  0.00D+00 EMaxC= 1.00D-01 BMatC= 8.04D-12 BMatP= 2.72D-11
 IDIUse=1 WtCom= 1.00D+00 WtEn= 0.00D+00
 Coeff-Com:  0.119D-02-0.744D-02-0.308D-01-0.931D-02 0.384D+00 0.663D+00
 Coeff:      0.119D-02-0.744D-02-0.308D-01-0.931D-02 0.384D+00 0.663D+00
 Gap=     0.400 Goal=   None    Shift=    0.000
 RMSDP=1.03D-08 MaxDP=2.44D-07 DE=-2.26D-11 OVMax= 6.43D-07

 Cycle  12  Pass 1  IDiag  1:
 E= -155.022126862974     Delta-E=       -0.000000000004 Rises=F Damp=F
 DIIS: error= 1.49D-08 at cycle   7 NSaved=   7.
 NSaved= 7 IEnMin= 7 EnMin= -155.022126862974     IErMin= 7 ErrMin= 1.49D-08
 ErrMax= 1.49D-08  0.00D+00 EMaxC= 1.00D-01 BMatC= 2.72D-14 BMatP= 8.04D-12
 IDIUse=1 WtCom= 1.00D+00 WtEn= 0.00D+00
 Coeff-Com:  0.232D-03-0.102D-02-0.442D-02-0.437D-02 0.420D-01 0.817D-01
 Coeff-Com:  0.886D+00
 Coeff:      0.232D-03-0.102D-02-0.442D-02-0.437D-02 0.420D-01 0.817D-01
 Coeff:      0.886D+00
 Gap=     0.400 Goal=   None    Shift=    0.000
 RMSDP=1.06D-09 MaxDP=2.78D-08 DE=-4.38D-12 OVMax= 6.16D-08

 SCF Done:  E(RM062X) =  -155.022126863     A.U. after   12 cycles
            NFock= 12  Conv=0.11D-08     -V/T= 2.0061
 KE= 1.540790841510D+02 PE=-5.262688993957D+02 EE= 1.351636991186D+02
 Leave Link  502 at Thu May 23 01:50:48 2019, MaxMem=   671088640 cpu:             151.5 elap:               9.4
 (Enter /shared/centos7/gaussian/g16/l801.exe)
 DoSCS=F DFT=T ScalE2(SS,OS)=  1.000000  1.000000
 Range of M.O.s used for correlation:     1   174
 NBasis=   174 NAE=    13 NBE=    13 NFC=     0 NFV=     0
 NROrb=    174 NOA=    13 NOB=    13 NVA=   161 NVB=   161

 **** Warning!!: The largest alpha MO coefficient is  0.10704578D+02

 Leave Link  801 at Thu May 23 01:50:48 2019, MaxMem=   671088640 cpu:               0.4 elap:               0.0
 (Enter /shared/centos7/gaussian/g16/l1101.exe)
 Using compressed storage, NAtomX=     9.
 Will process     10 centers per pass.
 Leave Link 1101 at Thu May 23 01:50:49 2019, MaxMem=   671088640 cpu:               5.0 elap:               0.3
 (Enter /shared/centos7/gaussian/g16/l1102.exe)
 Symmetrizing basis deriv contribution to polar:
 IMax=3 JMax=2 DiffMx= 0.00D+00
 Leave Link 1102 at Thu May 23 01:50:49 2019, MaxMem=   671088640 cpu:               0.6 elap:               0.1
 (Enter /shared/centos7/gaussian/g16/l1110.exe)
 Forming Gx(P) for the SCF density, NAtomX=     9.
 Integral derivatives from FoFJK, PRISM(SPDF).
 Do as many integral derivatives as possible in FoFJK.
 G2DrvN: MDV=     671087856.
 G2DrvN: will do    10 centers at a time, making    1 passes.
 Calling FoFCou, ICntrl=  3107 FMM=F I1Cent=   0 AccDes= 0.00D+00.
 FoFJK:  IHMeth= 1 ICntrl=    3107 DoSepK=F KAlg= 0 I1Cent=           0 FoldK=F
 IRaf=         0 NMat=       1 IRICut=       1 DoRegI=T DoRafI=F ISym2E= 0 IDoP0=0 IntGTp=1.
 FoFCou: FMM=F IPFlag=           0 FMFlag=      100000 FMFlg1=           0
         NFxFlg=           0 DoJE=F BraDBF=F KetDBF=F FulRan=T
         wScrn=  0.000000 ICntrl=      3107 IOpCl=  0 I1Cent=           0 NGrid=           0
         NMat0=    1 NMatS0=      1 NMatT0=    0 NMatD0=    1 NMtDS0=    0 NMtDT0=    0
 Symmetry not used in FoFCou.
 End of G2Drv F.D. properties file   721 does not exist.
 End of G2Drv F.D. properties file   722 does not exist.
 End of G2Drv F.D. properties file   788 does not exist.
 Leave Link 1110 at Thu May 23 01:51:05 2019, MaxMem=   671088640 cpu:             331.0 elap:              16.6
 (Enter /shared/centos7/gaussian/g16/l1002.exe)
 Minotr:  Closed shell wavefunction.
          IDoAtm=111111111
          Direct CPHF calculation.
          Differentiating once with respect to nuclear coordinates.
          Requested convergence is 1.0D-08 RMS, and 1.0D-07 maximum.
          Secondary convergence is 1.0D-12 RMS, and 1.0D-12 maximum.
          NewPWx=T KeepS1=F KeepF1=F KeepIn=T MapXYZ=F SortEE=F KeepMc=T.
         2669 words used for storage of precomputed grid.
 Keep R1 ints in memory in canonical form, NReq=136278967.
 FoFCou: FMM=F IPFlag=           0 FMFlag=           0 FMFlg1=           0
         NFxFlg=           0 DoJE=F BraDBF=F KetDBF=F FulRan=T
         wScrn=  0.000000 ICntrl=       600 IOpCl=  0 I1Cent=           0 NGrid=           0
         NMat0=    1 NMatS0=  15225 NMatT0=    0 NMatD0=    1 NMtDS0=    0 NMtDT0=    0
 Symmetry not used in FoFCou.
 Two-electron integral symmetry not used.
          MDV=     671088640 using IRadAn=       1.
          Solving linear equations simultaneously, MaxMat=       0.
          There are    30 degrees of freedom in the 1st order CPHF.  IDoFFX=6 NUNeed=     0.
     24 vectors produced by pass  0 Test12= 6.98D-15 3.33D-09 XBig12= 5.42D-02 6.75D-02.
 AX will form    24 AO Fock derivatives at one time.
     24 vectors produced by pass  1 Test12= 6.98D-15 3.33D-09 XBig12= 6.04D-03 1.85D-02.
     24 vectors produced by pass  2 Test12= 6.98D-15 3.33D-09 XBig12= 1.55D-04 2.63D-03.
     24 vectors produced by pass  3 Test12= 6.98D-15 3.33D-09 XBig12= 1.48D-06 2.38D-04.
     24 vectors produced by pass  4 Test12= 6.98D-15 3.33D-09 XBig12= 1.05D-08 1.51D-05.
     24 vectors produced by pass  5 Test12= 6.98D-15 3.33D-09 XBig12= 4.74D-11 1.54D-06.
     10 vectors produced by pass  6 Test12= 6.98D-15 3.33D-09 XBig12= 1.94D-13 1.35D-07.
      1 vectors produced by pass  7 Test12= 6.98D-15 3.33D-09 XBig12= 5.26D-16 3.58D-09.
 InvSVY:  IOpt=1 It=  1 EMax= 1.11D-15
 Solved reduced A of dimension   155 with    24 vectors.
 End of Minotr F.D. properties file   721 does not exist.
 End of Minotr F.D. properties file   722 does not exist.
 End of Minotr F.D. properties file   788 does not exist.
 Leave Link 1002 at Thu May 23 01:51:24 2019, MaxMem=   671088640 cpu:             367.5 elap:              18.6
 (Enter /shared/centos7/gaussian/g16/l601.exe)
 Copying SCF densities to generalized density rwf, IOpCl= 0 IROHF=0.

 **********************************************************************

            Population analysis using the SCF density.

 **********************************************************************

 Orbital symmetries:
       Occupied  (A) (A) (A) (A) (A) (A) (A) (A) (A) (A) (A) (A)
                 (A)
       Virtual   (A) (A) (A) (A) (A) (A) (A) (A) (A) (A) (A) (A)
                 (A) (A) (A) (A) (A) (A) (A) (A) (A) (A) (A) (A)
                 (A) (A) (A) (A) (A) (A) (A) (A) (A) (A) (A) (A)
                 (A) (A) (A) (A) (A) (A) (A) (A) (A) (A) (A) (A)
                 (A) (A) (A) (A) (A) (A) (A) (A) (A) (A) (A) (A)
                 (A) (A) (A) (A) (A) (A) (A) (A) (A) (A) (A) (A)
                 (A) (A) (A) (A) (A) (A) (A) (A) (A) (A) (A) (A)
                 (A) (A) (A) (A) (A) (A) (A) (A) (A) (A) (A) (A)
                 (A) (A) (A) (A) (A) (A) (A) (A) (A) (A) (A) (A)
                 (A) (A) (A) (A) (A) (A) (A) (A) (A) (A) (A) (A)
                 (A) (A) (A) (A) (A) (A) (A) (A) (A) (A) (A) (A)
                 (A) (A) (A) (A) (A) (A) (A) (A) (A) (A) (A) (A)
                 (A) (A) (A) (A) (A) (A) (A) (A) (A) (A) (A) (A)
                 (A) (A) (A) (A) (A)
 The electronic state is 1-A.
 Alpha  occ. eigenvalues --  -19.61891 -10.58233 -10.52722  -1.15146  -0.83960
 Alpha  occ. eigenvalues --   -0.69133  -0.59737  -0.53891  -0.48141  -0.44584
 Alpha  occ. eigenvalues --   -0.43191  -0.39330  -0.33910
 Alpha virt. eigenvalues --    0.06048   0.09447   0.12467   0.12789   0.15284
 Alpha virt. eigenvalues --    0.16970   0.22336   0.23284   0.29258   0.31297
 Alpha virt. eigenvalues --    0.33988   0.37708   0.40476   0.43133   0.46046
 Alpha virt. eigenvalues --    0.49443   0.50734   0.51979   0.52102   0.53118
 Alpha virt. eigenvalues --    0.57661   0.58983   0.60777   0.65278   0.69960
 Alpha virt. eigenvalues --    0.72520   0.77574   0.80771   0.83742   0.89569
 Alpha virt. eigenvalues --    0.92861   0.98955   1.01669   1.07431   1.07903
 Alpha virt. eigenvalues --    1.09761   1.10856   1.12491   1.14599   1.15770
 Alpha virt. eigenvalues --    1.20555   1.21763   1.25217   1.28901   1.31227
 Alpha virt. eigenvalues --    1.33439   1.36836   1.39658   1.40310   1.47000
 Alpha virt. eigenvalues --    1.51192   1.54480   1.57954   1.63704   1.87991
 Alpha virt. eigenvalues --    1.98304   2.03954   2.10614   2.13807   2.22737
 Alpha virt. eigenvalues --    2.29409   2.31123   2.40656   2.42727   2.43366
 Alpha virt. eigenvalues --    2.48004   2.58633   2.60598   2.68403   2.76077
 Alpha virt. eigenvalues --    2.82290   2.82827   2.85768   2.88769   2.92542
 Alpha virt. eigenvalues --    2.95578   2.96673   3.00156   3.00689   3.03243
 Alpha virt. eigenvalues --    3.05937   3.06746   3.09553   3.13222   3.16394
 Alpha virt. eigenvalues --    3.20387   3.25505   3.30550   3.36018   3.38454
 Alpha virt. eigenvalues --    3.39093   3.39920   3.42071   3.44067   3.48963
 Alpha virt. eigenvalues --    3.51487   3.53342   3.58885   3.62053   3.65636
 Alpha virt. eigenvalues --    3.72326   3.75826   3.77887   3.80469   3.83172
 Alpha virt. eigenvalues --    3.84602   3.86687   3.89062   3.91854   3.95083
 Alpha virt. eigenvalues --    3.97988   4.00890   4.01299   4.04964   4.05806
 Alpha virt. eigenvalues --    4.09151   4.15826   4.16682   4.23833   4.26116
 Alpha virt. eigenvalues --    4.30104   4.33970   4.42222   4.45627   4.60970
 Alpha virt. eigenvalues --    4.62499   4.65081   4.73230   4.76005   4.78594
 Alpha virt. eigenvalues --    4.81083   4.89002   4.92174   4.95161   5.06783
 Alpha virt. eigenvalues --    5.14068   5.18875   5.21866   5.23943   5.26796
 Alpha virt. eigenvalues --    5.33790   5.37336   5.44657   5.57577   5.70194
 Alpha virt. eigenvalues --    5.76239   5.82363   5.86361   6.02341   6.14097
 Alpha virt. eigenvalues --    6.42890   6.62267   6.64408   6.72972   6.90077
 Alpha virt. eigenvalues --    6.96984   7.14617   7.36881  11.47185  12.39832
 Alpha virt. eigenvalues --   13.10729
          Condensed to atoms (all electrons):
               1          2          3          4          5          6
     1  O    7.865603   0.346275  -0.047346  -0.060174  -0.062375   0.002442
     2  C    0.346275   4.661833   0.308435   0.401632   0.406381  -0.033336
     3  C   -0.047346   0.308435   4.972854  -0.044094  -0.049614   0.399933
     4  H   -0.060174   0.401632  -0.044094   0.750855  -0.090930  -0.016998
     5  H   -0.062375   0.406381  -0.049614  -0.090930   0.751362   0.010178
     6  H    0.002442  -0.033336   0.399933  -0.016998   0.010178   0.599178
     7  H    0.003152  -0.031933   0.382568   0.001269  -0.002254  -0.034558
     8  H    0.005110  -0.031926   0.383760   0.011333  -0.008810  -0.035712
     9  H    0.326350  -0.039593   0.010574  -0.008420  -0.008766  -0.000254
               7          8          9
     1  O    0.003152   0.005110   0.326350
     2  C   -0.031933  -0.031926  -0.039593
     3  C    0.382568   0.383760   0.010574
     4  H    0.001269   0.011333  -0.008420
     5  H   -0.002254  -0.008810  -0.008766
     6  H   -0.034558  -0.035712  -0.000254
     7  H    0.611085  -0.028660  -0.000871
     8  H   -0.028660   0.596050  -0.000187
     9  H   -0.000871  -0.000187   0.466023
 Mulliken charges:
               1
     1  O   -0.379037
     2  C    0.012233
     3  C   -0.317070
     4  H    0.055528
     5  H    0.054828
     6  H    0.109128
     7  H    0.100202
     8  H    0.109043
     9  H    0.255144
 Sum of Mulliken charges =  -0.00000
 Mulliken charges with hydrogens summed into heavy atoms:
               1
     1  O   -0.123893
     2  C    0.122590
     3  C    0.001303
 APT charges:
               1
     1  O   -0.658155
     2  C   -0.494203
     3  C   -0.935930
     4  H    0.268471
     5  H    0.267246
     6  H    0.321421
     7  H    0.352902
     8  H    0.285451
     9  H    0.592799
 Sum of APT charges =  -0.00000
 APT charges with hydrogens summed into heavy atoms:
               1
     1  O   -0.065356
     2  C    0.041513
     3  C    0.023843
 Electronic spatial extent (au):  <R**2>=            194.3775
 Charge=             -0.0000 electrons
 Dipole moment (field-independent basis, Debye):
    X=              0.3051    Y=              1.4827    Z=             -0.0213  Tot=              1.5139
 Quadrupole moment (field-independent basis, Debye-Ang):
   XX=            -16.9602   YY=            -20.9062   ZZ=            -20.3421
   XY=              1.9729   XZ=              0.0109   YZ=              0.0242
 Traceless Quadrupole moment (field-independent basis, Debye-Ang):
   XX=              2.4426   YY=             -1.5034   ZZ=             -0.9392
   XY=              1.9729   XZ=              0.0109   YZ=              0.0242
 Octapole moment (field-independent basis, Debye-Ang**2):
  XXX=             16.3785  YYY=             -1.1241  ZZZ=              0.4979  XYY=              0.9152
  XXY=              2.8569  XXZ=             -0.2078  XZZ=              1.3562  YZZ=             -0.3073
  YYZ=             -0.4036  XYZ=              0.1752
 Hexadecapole moment (field-independent basis, Debye-Ang**3):
 XXXX=           -136.6762 YYYY=            -57.8140 ZZZZ=            -34.9672 XXXY=              0.4349
 XXXZ=              0.5556 YYYX=             -0.9927 YYYZ=              0.5458 ZZZX=             -0.8059
 ZZZY=             -0.2269 XXYY=            -36.8097 XXZZ=            -33.5139 YYZZ=            -14.4843
 XXYZ=             -0.6337 YYXZ=              0.5180 ZZXY=              0.5991
 N-N= 8.200398926310D+01 E-N=-5.262689015308D+02  KE= 1.540790841510D+02
  Exact polarizability:   0.000   0.000   0.000   0.000   0.000   0.000
 Approx polarizability:  35.504   0.468  34.494  -0.014   0.246  32.659
 No NMR shielding tensors so no spin-rotation constants.
 Leave Link  601 at Thu May 23 01:51:24 2019, MaxMem=   671088640 cpu:               4.9 elap:               0.3
 (Enter /shared/centos7/gaussian/g16/l701.exe)
 SCFChk:  SCF convergence  1.06D-09 required  1.00D-08
 ... and contract with generalized density number  0.
 Compute integral second derivatives.
 Entering OneElI...
 Calculate overlap and kinetic energy integrals
    NBasis = 195  MinDer = 2  MaxDer = 2
 Requested accuracy = 0.1000D-12
 PrmmSu-InSpLW:  IPartL=    0 NPrtUS=   20 NPrtUL=    1 DoSpLW=F IThBeg=    0 IThEnd=   19 NThAct=   20.
 PrsmSu:  NPrtUS=  20 ThrOK=T IAlg=1 NPAlg=1 LenDen=           0 ISkipM=0 DoSpLW=F IThBeg=    0 IThEnd=   19.
 Prism:   IPart=     0 DynPar=F LinDyn=F Incr=           1.
 PRISM was handed    33489506 working-precision words and  2211 shell-pairs
 PRISM was handed    33489506 working-precision words and  2211 shell-pairs
 PRISM was handed    33489506 working-precision words and  2211 shell-pairs
 PRISM was handed    33489506 working-precision words and  2211 shell-pairs
 PRISM was handed    33489506 working-precision words and  2211 shell-pairs
 PRISM was handed    33489506 working-precision words and  2211 shell-pairs
 PRISM was handed    33489506 working-precision words and  2211 shell-pairs
 PRISM was handed    33489506 working-precision words and  2211 shell-pairs
 PRISM was handed    33489506 working-precision words and  2211 shell-pairs
 PRISM was handed    33489506 working-precision words and  2211 shell-pairs
 PRISM was handed    33489506 working-precision words and  2211 shell-pairs
 PRISM was handed    33489506 working-precision words and  2211 shell-pairs
 PRISM was handed    33489506 working-precision words and  2211 shell-pairs
 PRISM was handed    33489506 working-precision words and  2211 shell-pairs
 PRISM was handed    33489506 working-precision words and  2211 shell-pairs
 PRISM was handed    33489506 working-precision words and  2211 shell-pairs
 PRISM was handed    33489506 working-precision words and  2211 shell-pairs
 PRISM was handed    33489506 working-precision words and  2211 shell-pairs
 PRISM was handed    33489506 working-precision words and  2211 shell-pairs
 PRISM was handed    33489506 working-precision words and  2211 shell-pairs
 IPart= 16 NShTot=          93 NBatch=          21 AvBLen=         4.4
 IPart= 13 NShTot=         104 NBatch=          21 AvBLen=         5.0
 IPart= 11 NShTot=         104 NBatch=          21 AvBLen=         5.0
 IPart=  3 NShTot=         125 NBatch=          37 AvBLen=         3.4
 IPart=  2 NShTot=         132 NBatch=          44 AvBLen=         3.0
 IPart=  1 NShTot=         135 NBatch=          46 AvBLen=         2.9
 IPart=  4 NShTot=         122 NBatch=          35 AvBLen=         3.5
 IPart=  0 NShTot=         145 NBatch=          56 AvBLen=         2.6
 IPart=  9 NShTot=         107 NBatch=          21 AvBLen=         5.1
 IPart= 14 NShTot=         101 NBatch=          21 AvBLen=         4.8
 IPart=  7 NShTot=         113 NBatch=          26 AvBLen=         4.3
 IPart=  8 NShTot=         112 NBatch=          26 AvBLen=         4.3
 IPart= 17 NShTot=          92 NBatch=          21 AvBLen=         4.4
 IPart= 10 NShTot=         107 NBatch=          21 AvBLen=         5.1
 IPart=  6 NShTot=         116 NBatch=          29 AvBLen=         4.0
 IPart= 19 NShTot=          90 NBatch=          20 AvBLen=         4.5
 IPart=  5 NShTot=         119 NBatch=          32 AvBLen=         3.7
 IPart= 15 NShTot=         100 NBatch=          21 AvBLen=         4.8
 IPart= 18 NShTot=          90 NBatch=          20 AvBLen=         4.5
 IPart= 12 NShTot=         104 NBatch=          21 AvBLen=         5.0
 PrSmSu:  NxtVal=             21.
 Entering OneElI...
 Calculate potential energy integrals
    NBasis = 195  MinDer = 2  MaxDer = 2
 Requested accuracy = 0.1000D-12
 PrmmSu-InSpLW:  IPartL=    0 NPrtUS=   20 NPrtUL=    1 DoSpLW=F IThBeg=    0 IThEnd=   19 NThAct=   20.
 PrsmSu:  NPrtUS=  20 ThrOK=T IAlg=1 NPAlg=1 LenDen=           0 ISkipM=0 DoSpLW=F IThBeg=    0 IThEnd=   19.
 Prism:   IPart=     0 DynPar=F LinDyn=F Incr=           9.
 PRISM was handed    33495762 working-precision words and  2185 shell-pairs
 PRISM was handed    33495762 working-precision words and  2185 shell-pairs
 PRISM was handed    33495762 working-precision words and  2185 shell-pairs
 PRISM was handed    33495762 working-precision words and  2185 shell-pairs
 PRISM was handed    33495762 working-precision words and  2185 shell-pairs
 PRISM was handed    33495762 working-precision words and  2185 shell-pairs
 PRISM was handed    33495762 working-precision words and  2185 shell-pairs
 PRISM was handed    33495762 working-precision words and  2185 shell-pairs
 PRISM was handed    33495762 working-precision words and  2185 shell-pairs
 PRISM was handed    33495762 working-precision words and  2185 shell-pairs
 PRISM was handed    33495762 working-precision words and  2185 shell-pairs
 PRISM was handed    33495762 working-precision words and  2185 shell-pairs
 PRISM was handed    33495762 working-precision words and  2185 shell-pairs
 PRISM was handed    33495762 working-precision words and  2185 shell-pairs
 PRISM was handed    33495762 working-precision words and  2185 shell-pairs
 PRISM was handed    33495762 working-precision words and  2185 shell-pairs
 PRISM was handed    33495762 working-precision words and  2185 shell-pairs
 PRISM was handed    33495762 working-precision words and  2185 shell-pairs
 PRISM was handed    33495762 working-precision words and  2185 shell-pairs
 PRISM was handed    33495762 working-precision words and  2185 shell-pairs
 IPart= 16 NShTot=         837 NBatch=          93 AvBLen=         9.0
 IPart= 13 NShTot=         882 NBatch=          98 AvBLen=         9.0
 IPart= 11 NShTot=         927 NBatch=         103 AvBLen=         9.0
 IPart=  2 NShTot=        1170 NBatch=         130 AvBLen=         9.0
 IPart=  3 NShTot=        1098 NBatch=         122 AvBLen=         9.0
 IPart=  1 NShTot=        1224 NBatch=         136 AvBLen=         9.0
 IPart=  0 NShTot=        1332 NBatch=         148 AvBLen=         9.0
 IPart= 19 NShTot=         801 NBatch=          89 AvBLen=         9.0
 IPart= 10 NShTot=         945 NBatch=         105 AvBLen=         9.0
 IPart=  4 NShTot=        1098 NBatch=         122 AvBLen=         9.0
 IPart=  8 NShTot=         999 NBatch=         111 AvBLen=         9.0
 IPart= 12 NShTot=         918 NBatch=         102 AvBLen=         9.0
 IPart= 15 NShTot=         855 NBatch=          95 AvBLen=         9.0
 IPart=  9 NShTot=         954 NBatch=         106 AvBLen=         9.0
 IPart= 17 NShTot=         810 NBatch=          90 AvBLen=         9.0
 IPart= 18 NShTot=         801 NBatch=          89 AvBLen=         9.0
 IPart=  5 NShTot=        1089 NBatch=         121 AvBLen=         9.0
 IPart=  7 NShTot=        1008 NBatch=         112 AvBLen=         9.0
 IPart= 14 NShTot=         864 NBatch=          96 AvBLen=         9.0
 IPart=  6 NShTot=        1053 NBatch=         117 AvBLen=         9.0
 PrSmSu:  NxtVal=            181.
 Polarizability after L701:
                1             2             3 
      1  0.000000D+00
      2  0.000000D+00  0.000000D+00
      3  0.000000D+00  0.000000D+00  0.000000D+00
 Dipole Derivatives after L701:
                 1             2             3             4             5 
      1  -0.132353D+01 -0.515133D+00 -0.207847D-02 -0.371200D-01  0.132453D+00
      2  -0.200330D+00 -0.282343D+00 -0.113473D-02  0.120801D+00 -0.785155D+00
      3   0.131849D-01 -0.187468D-02 -0.368593D+00  0.910840D-02 -0.611707D-02
                 6             7             8             9            10 
      1  -0.520478D-02 -0.108592D+01 -0.135457D+00  0.103721D-02  0.122940D+00
      2   0.668351D-02  0.954071D-01 -0.785180D+00  0.415853D-02  0.249551D-01
      3  -0.660336D+00 -0.229975D-01 -0.845502D-03 -0.936686D+00  0.585273D-01
                11            12            13            14            15 
      1   0.495077D-02  0.604075D-01  0.131793D+00 -0.267263D-02 -0.628468D-01
      2   0.313852D+00  0.234815D+00  0.132142D-01  0.310369D+00 -0.225211D+00
      3   0.152285D+00  0.368620D+00 -0.610998D-01 -0.160271D+00  0.359575D+00
                16            17            18            19            20 
      1   0.243786D+00  0.177231D+00 -0.478062D+00  0.683556D+00 -0.461447D+00
      2   0.739131D-01  0.189475D+00 -0.218494D+00 -0.193483D+00  0.248775D+00
      3  -0.912218D-01 -0.134311D+00  0.531001D+00  0.989249D-01 -0.894015D-01
                21            22            23            24            25 
      1   0.221361D+00  0.943522D-01  0.345489D+00  0.262136D+00  0.117015D+01
      2  -0.783394D-01  0.159344D-01  0.455659D+00  0.280571D+00  0.495880D-01
      3   0.126374D+00 -0.452967D-03  0.243450D+00  0.306340D+00 -0.397331D-02
                26            27 
      1   0.454585D+00  0.325029D-02
      2   0.334547D+00 -0.304809D-02
      3  -0.291394D-02  0.273704D+00
 Hessian after L701:
                1             2             3             4             5 
      1  0.267688D+01
      2  0.191619D+01  0.802184D+01
      3 -0.167603D-01  0.134700D-01  0.116590D+02
      4 -0.215856D+01 -0.404750D+01  0.104034D-01  0.923376D+01
      5 -0.396981D+01 -0.354498D+01 -0.504946D-01  0.242466D+01  0.114364D+02
      6  0.106581D-01 -0.484105D-01 -0.723999D+01 -0.243911D-01  0.238692D-01
      7  0.579347D+00  0.146329D+00  0.239731D-01 -0.108008D+01  0.162414D+01
      8  0.913788D-01 -0.398799D+00  0.298277D-01  0.159442D+01 -0.384423D+01
      9  0.215362D-01  0.211485D-01 -0.298980D+00  0.394182D-01  0.334764D-02
     10 -0.685294D-01  0.205102D+00 -0.383795D-01 -0.302109D+01  0.443771D-02
     11  0.219812D+00 -0.821060D-01  0.183373D+00 -0.225269D-01 -0.203471D+01
     12 -0.134667D-01  0.135316D+00  0.388329D+00 -0.388560D-02  0.107177D+01
     13 -0.609060D-01  0.217480D+00  0.306744D-01 -0.304273D+01  0.352994D-02
     14  0.235066D+00 -0.974975D-01 -0.168020D+00 -0.195476D-01 -0.210966D+01
     15  0.218871D-02 -0.115111D+00  0.397785D+00 -0.881554D-02 -0.105237D+01
     16  0.108053D+00  0.121417D-01 -0.362855D-01  0.255317D-01 -0.129859D-01
     17  0.247485D-01 -0.501862D-01 -0.872864D-02  0.104282D-01 -0.185510D-01
     18 -0.787834D-01 -0.579913D-02 -0.257913D-01 -0.403537D-01 -0.166325D-01
     19  0.979699D-01 -0.692291D-01  0.202075D-01  0.217619D-01  0.199843D-01
     20 -0.594896D-01 -0.128884D-01 -0.907013D-02 -0.384813D-02  0.356153D-01
     21  0.224154D-01 -0.109498D-01 -0.342665D-01  0.166926D-01 -0.743193D-02
     22  0.126062D+00  0.255566D-01  0.436396D-02  0.137587D-01 -0.247909D-01
     23  0.775472D-01 -0.568175D-01  0.959593D-02  0.234354D-01  0.166370D-01
     24  0.537237D-01  0.941963D-02 -0.723848D-01  0.116466D-01  0.291026D-01
     25 -0.130032D+01  0.159393D+01  0.180290D-02  0.764760D-02 -0.691666D-01
     26  0.146455D+01 -0.377857D+01  0.465832D-04  0.404799D-01  0.634645D-01
     27 -0.151179D-02  0.915551D-03 -0.477372D+01 -0.714844D-03 -0.116092D-02
                6             7             8             9            10 
      6  0.151904D+02
      7  0.342323D-01  0.754231D+01
      8 -0.247685D-02 -0.103472D+01  0.104094D+02
      9 -0.455862D+01 -0.407536D-01 -0.452362D-01  0.106488D+02
     10  0.265654D-01  0.301357D-01 -0.386287D-01 -0.465327D-01  0.283810D+01
     11  0.113045D+01 -0.304063D-01 -0.200986D-01 -0.418399D-01 -0.194385D+00
     12 -0.173038D+01 -0.385750D-01 -0.354818D-01  0.921244D-02  0.952949D-03
     13 -0.377353D-01 -0.226648D-01 -0.269455D-01  0.659125D-01  0.245002D+00
     14 -0.111284D+01 -0.360356D-01  0.575295D-01  0.281117D-01  0.402217D-03
     15 -0.177013D+01  0.679074D-01  0.108459D-01  0.236631D-01  0.209424D-02
     16  0.327035D-02 -0.271975D+01  0.183115D+00 -0.510449D+00 -0.133591D-01
     17 -0.620194D-02  0.146508D+00 -0.254185D+01 -0.635377D+00 -0.386901D-01
     18  0.641691D-01 -0.403973D+00 -0.620342D+00 -0.122331D+01  0.439827D-02
     19  0.767615D-02 -0.171845D+01 -0.860839D+00  0.391763D+00  0.147143D-01
     20 -0.922949D-02 -0.804506D+00 -0.208902D+01 -0.296448D+00  0.315761D-02
     21 -0.508985D-02  0.367659D+00 -0.299046D+00 -0.257419D+01  0.119898D-01
     22 -0.158072D-01 -0.279605D+01  0.692300D-01  0.729531D-01 -0.619176D-02
     23  0.256938D-01 -0.440287D-01 -0.152760D+01  0.965574D+00  0.389750D-01
     24  0.345477D-01 -0.144741D-01  0.961867D+00 -0.198083D+01  0.298008D-01
     25 -0.446870D-02  0.185210D+00  0.229935D-01  0.615213D-02 -0.187832D-01
     26 -0.856801D-03  0.327257D-01 -0.453399D-01  0.719325D-03  0.196289D-01
     27  0.151492D-01  0.400309D-02  0.418051D-04 -0.457133D-01  0.911084D-02
               11            12            13            14            15 
     11  0.184316D+01
     12 -0.127149D+01  0.175515D+01
     13  0.610538D-03  0.117441D-03  0.289373D+01
     14  0.271868D+00  0.509105D-01 -0.226859D+00  0.188193D+01
     15 -0.603511D-01 -0.479383D+00 -0.848724D-02  0.124468D+01  0.177430D+01
     16 -0.456537D-01 -0.133581D-03  0.447467D-02  0.401510D-01 -0.438004D-01
     17 -0.206670D-01  0.826025D-03  0.283506D-01  0.178446D-01 -0.426501D-01
     18  0.227882D-02  0.244460D-01 -0.392956D-01 -0.512264D-01  0.325280D-01
     19  0.125888D-01  0.172396D-01  0.586403D-02  0.976496D-02 -0.873397D-02
     20 -0.742831D-02  0.177430D-03 -0.184912D-02 -0.355466D-02  0.806361D-03
     21  0.668593D-02  0.198086D-02 -0.629939D-03 -0.122503D-02 -0.208659D-02
     22  0.455453D-01  0.354935D-01  0.926157D-04 -0.214505D-01  0.348392D-02
     23  0.516821D-01  0.580092D-01 -0.169258D-01 -0.163859D-01  0.267332D-02
     24  0.552812D-01  0.182494D-01  0.732457D-03  0.412273D-02  0.102533D-01
     25  0.144151D-01  0.225737D-02 -0.228648D-01  0.185083D-01 -0.583716D-02
     26 -0.169828D-02 -0.100330D-01  0.226078D-01 -0.208012D-02  0.114692D-01
     27 -0.438711D-02  0.123953D-01 -0.112887D-01  0.548122D-02  0.130730D-01
               16            17            18            19            20 
     16  0.245946D+01
     17 -0.231676D+00  0.255506D+01
     18  0.619944D+00  0.645149D+00  0.130587D+01
     19  0.625022D-01  0.454533D-01 -0.683271D-01  0.148933D+01
     20  0.382890D-01 -0.147112D-01  0.100439D+00  0.755054D+00  0.218694D+01
     21 -0.671006D-01  0.113378D+00 -0.499068D-01 -0.389595D+00  0.244669D+00
     22  0.645433D-01  0.103034D-01  0.166155D-01  0.282753D-01  0.771671D-01
     23  0.127423D-01  0.728325D-01 -0.497693D-01  0.823434D-01 -0.945180D-01
     24  0.358750D-01 -0.661632D-01 -0.127507D+00  0.301243D-01 -0.313222D-01
     25  0.854331D-02  0.457471D-02 -0.102254D-01 -0.196332D-02 -0.397447D-02
     26  0.387667D-02  0.225245D-03 -0.409706D-02  0.487950D-02 -0.435435D-03
     27 -0.132028D-02 -0.232025D-03 -0.493577D-03 -0.355519D-03 -0.213880D-04
               21            22            23            24            25 
     21  0.260311D+01
     22  0.366949D-01  0.256116D+01
     23 -0.469711D-01 -0.185767D+00  0.155107D+01
     24  0.597977D-01 -0.155063D+00 -0.965938D+00  0.205913D+01
     25  0.187291D-02  0.835473D-02  0.116780D-01  0.763443D-02  0.113417D+01
     26  0.890765D-03  0.420578D-02  0.310543D-02  0.363055D-02 -0.159295D+01
     27  0.656186D-03  0.126560D-02  0.113242D-02 -0.125733D-02  0.811571D-03
               26            27 
     26  0.376133D+01
     27 -0.176954D-02  0.477991D+01
 Leave Link  701 at Thu May 23 01:51:24 2019, MaxMem=   671088640 cpu:               6.0 elap:               0.3
 (Enter /shared/centos7/gaussian/g16/l702.exe)
 L702 exits ... SP integral derivatives will be done elsewhere.
 Leave Link  702 at Thu May 23 01:51:24 2019, MaxMem=   671088640 cpu:               0.7 elap:               0.1
 (Enter /shared/centos7/gaussian/g16/l703.exe)
 Integral derivatives from FoFJK, PRISM(SPDF).
 Compute integral second derivatives, UseDBF=F ICtDFT=           0.
 ICntrl=    100147.
 Calling FoFJK, ICntrl=    100147 FMM=F ISym2X=0 I1Cent= 0 IOpClX= 0 NMat=1 NMatS=1 NMatT=0.
 FoFJK:  IHMeth= 1 ICntrl=  100147 DoSepK=F KAlg= 0 I1Cent=           0 FoldK=F
 IRaf=         0 NMat=       1 IRICut=       1 DoRegI=T DoRafI=F ISym2E= 0 IDoP0=0 IntGTp=1.
 FoFCou: FMM=F IPFlag=           0 FMFlag=      100000 FMFlg1=         800
         NFxFlg=           0 DoJE=F BraDBF=F KetDBF=F FulRan=T
         wScrn=  0.000000 ICntrl=    100147 IOpCl=  0 I1Cent=           0 NGrid=           0
         NMat0=    1 NMatS0=      1 NMatT0=    0 NMatD0=    1 NMtDS0=    0 NMtDT0=    0
 Symmetry not used in FoFCou.
 FoFCou:  KetSym=F NOpSet=  1 NOpAb=1 NOp=  1.
 FoFCou:  CnvScl= 1.00D+00 Thresh= 1.00D-08 IAcrcy=      12.
 PrismS was handed   670887638 working-precision words and  2208 shell-pairs
 FoFCou: LinMIO=F DoNuc=F BraDBF=F KetDBF=F HaveP=T PDBF=F HaveZ=T HaveW=F
         NIJTC =      10 NIJTAt=       0 NIJTCD=       0 NIJTT =      10
         IJTBeg=       1 IJTEnd=      10 KLTBeg=       1 KLTEnd=      10
         IPTBeg=       1 IPTEnd=      10 IPTBCv=       1 IPTECv=      10
         IZTBeg=       1 IZTEnd=      10 IZTBCv=       1 IZTECv=      10
         IWTBeg=      11 IWTEnd=      10 IWTBCv=      11 IWTECv=      10
         INTBeg=       1 INTEnd=       0 IFTBCv=       1 IFTECv=      10
 NCel replicated for PrismC:     1
 CoulSu-InSpLW:  IPartL=    0 NPrtUS=   20 NPrtUL=    1 DoSpLW=F IThBeg=    0 IThEnd=   19 NThAct=   20.
 CoulSu:  IncDef=  1024 NBBP=        2438736 NTPThr=   100 NPartT=   20 Incr=        1024 LDynOK=F GPUOK=T.
 CoulSu:  NPrtUS=  20 ThrOK=T IAlg=1 NPAlg=1 LenDen=           0 LWGrdD=           0 DoCopy=F ISkipM=0
          DoSpLW=F IThBeg=    0 IThEnd=   19.
 Enter PrismC:  IPart=  0 JobTyp=22 DoJE=F Cont=F.
 PrismC:  IPart=     0 DynPar=T LinDyn=F Incr=        1024 UseFst=F UseS4=T ISplat=2.
 PrismC was handed    33497019 working-precision words and  2208 shell-pairs
 Enter PrismC:  IPart= 12 JobTyp=22 DoJE=F Cont=F.
 Enter PrismC:  IPart= 17 JobTyp=22 DoJE=F Cont=F.
 PrismC:  IPart=    12 DynPar=T LinDyn=F Incr=        1024 UseFst=F UseS4=T ISplat=2.
 PrismC was handed    33497019 working-precision words and  2208 shell-pairs
 Enter PrismC:  IPart= 13 JobTyp=22 DoJE=F Cont=F.
 Enter PrismC:  IPart= 18 JobTyp=22 DoJE=F Cont=F.
 PrismC:  IPart=    17 DynPar=T LinDyn=F Incr=        1024 UseFst=F UseS4=T ISplat=2.
 PrismC was handed    33497019 working-precision words and  2208 shell-pairs
 PrismC:  IPart=    13 DynPar=T LinDyn=F Incr=        1024 UseFst=F UseS4=T ISplat=2.
 PrismC was handed    33497019 working-precision words and  2208 shell-pairs
 PrismC:  IPart=    18 DynPar=T LinDyn=F Incr=        1024 UseFst=F UseS4=T ISplat=2.
 PrismC was handed    33497019 working-precision words and  2208 shell-pairs
 Enter PrismC:  IPart= 10 JobTyp=22 DoJE=F Cont=F.
 Enter PrismC:  IPart=  5 JobTyp=22 DoJE=F Cont=F.
 PrismC:  IPart=    10 DynPar=T LinDyn=F Incr=        1024 UseFst=F UseS4=T ISplat=2.
 Enter PrismC:  IPart= 15 JobTyp=22 DoJE=F Cont=F.
 PrismC:  IPart=     5 DynPar=T LinDyn=F Incr=        1024 UseFst=F UseS4=T ISplat=2.
 PrismC was handed    33497019 working-precision words and  2208 shell-pairs
 Enter PrismC:  IPart= 16 JobTyp=22 DoJE=F Cont=F.
 PrismC was handed    33497019 working-precision words and  2208 shell-pairs
 Enter PrismC:  IPart= 11 JobTyp=22 DoJE=F Cont=F.
 PrismC:  IPart=    15 DynPar=T LinDyn=F Incr=        1024 UseFst=F UseS4=T ISplat=2.
 PrismC was handed    33497019 working-precision words and  2208 shell-pairs
 PrismC:  IPart=    11 DynPar=T LinDyn=F Incr=        1024 UseFst=F UseS4=T ISplat=2.
 PrismC was handed    33497019 working-precision words and  2208 shell-pairs
 PrismC:  IPart=    16 DynPar=T LinDyn=F Incr=        1024 UseFst=F UseS4=T ISplat=2.
 PrismC was handed    33497019 working-precision words and  2208 shell-pairs
 Enter PrismC:  IPart=  7 JobTyp=22 DoJE=F Cont=F.
 PrismC:  IPart=     7 DynPar=T LinDyn=F Incr=        1024 UseFst=F UseS4=T ISplat=2.
 PrismC was handed    33497019 working-precision words and  2208 shell-pairs
 Enter PrismC:  IPart=  4 JobTyp=22 DoJE=F Cont=F.
 Enter PrismC:  IPart= 19 JobTyp=22 DoJE=F Cont=F.
 PrismC:  IPart=     4 DynPar=T LinDyn=F Incr=        1024 UseFst=F UseS4=T ISplat=2.
 PrismC was handed    33497019 working-precision words and  2208 shell-pairs
 PrismC:  IPart=    19 DynPar=T LinDyn=F Incr=        1024 UseFst=F UseS4=T ISplat=2.
 PrismC was handed    33497019 working-precision words and  2208 shell-pairs
 Enter PrismC:  IPart=  3 JobTyp=22 DoJE=F Cont=F.
 Enter PrismC:  IPart=  2 JobTyp=22 DoJE=F Cont=F.
 PrismC:  IPart=     3 DynPar=T LinDyn=F Incr=        1024 UseFst=F UseS4=T ISplat=2.
 Enter PrismC:  IPart=  6 JobTyp=22 DoJE=F Cont=F.
 PrismC:  IPart=     2 DynPar=T LinDyn=F Incr=        1024 UseFst=F UseS4=T ISplat=2.
 PrismC was handed    33497019 working-precision words and  2208 shell-pairs
 PrismC:  IPart=     6 DynPar=T LinDyn=F Incr=        1024 UseFst=F UseS4=T ISplat=2.
 PrismC was handed    33497019 working-precision words and  2208 shell-pairs
 PrismC was handed    33497019 working-precision words and  2208 shell-pairs
 Enter PrismC:  IPart=  8 JobTyp=22 DoJE=F Cont=F.
 Enter PrismC:  IPart=  9 JobTyp=22 DoJE=F Cont=F.
 PrismC:  IPart=     8 DynPar=T LinDyn=F Incr=        1024 UseFst=F UseS4=T ISplat=2.
 Enter PrismC:  IPart=  1 JobTyp=22 DoJE=F Cont=F.
 PrismC:  IPart=     9 DynPar=T LinDyn=F Incr=        1024 UseFst=F UseS4=T ISplat=2.
 Enter PrismC:  IPart= 14 JobTyp=22 DoJE=F Cont=F.
 PrismC:  IPart=     1 DynPar=T LinDyn=F Incr=        1024 UseFst=F UseS4=T ISplat=2.
 PrismC:  IPart=    14 DynPar=T LinDyn=F Incr=        1024 UseFst=F UseS4=T ISplat=2.
 PrismC was handed    33497019 working-precision words and  2208 shell-pairs
 PrismC was handed    33497019 working-precision words and  2208 shell-pairs
 PrismC was handed    33497019 working-precision words and  2208 shell-pairs
 PrismC was handed    33497019 working-precision words and  2208 shell-pairs
 IPart= 10 NShTot=      102730 NShNF=      102730 NShFF=           0 MinMC=       7
           NShCPU=      102730 NBCPU=        4374 AvBCPU=        23.5
           NShGPU=           0 NBGPU=           0 AvBGPU=         0.0
 IPart=  2 NShTot=      112684 NShNF=      112684 NShFF=           0 MinMC=       7
           NShCPU=      112684 NBCPU=        4116 AvBCPU=        27.4
           NShGPU=           0 NBGPU=           0 AvBGPU=         0.0
 IPart=  3 NShTot=       90209 NShNF=       90209 NShFF=           0 MinMC=       7
           NShCPU=       90209 NBCPU=        3523 AvBCPU=        25.6
           NShGPU=           0 NBGPU=           0 AvBGPU=         0.0
 IPart= 13 NShTot=      120123 NShNF=      120123 NShFF=           0 MinMC=       7
           NShCPU=      120123 NBCPU=        5051 AvBCPU=        23.8
           NShGPU=           0 NBGPU=           0 AvBGPU=         0.0
 IPart= 12 NShTot=      103999 NShNF=      103999 NShFF=           0 MinMC=       7
           NShCPU=      103999 NBCPU=        4573 AvBCPU=        22.7
           NShGPU=           0 NBGPU=           0 AvBGPU=         0.0
 IPart= 18 NShTot=      117507 NShNF=      117507 NShFF=           0 MinMC=       7
           NShCPU=      117507 NBCPU=        4918 AvBCPU=        23.9
           NShGPU=           0 NBGPU=           0 AvBGPU=         0.0
 IPart= 15 NShTot=      114438 NShNF=      114438 NShFF=           0 MinMC=       7
           NShCPU=      114438 NBCPU=        4588 AvBCPU=        24.9
           NShGPU=           0 NBGPU=           0 AvBGPU=         0.0
 IPart= 16 NShTot=       87773 NShNF=       87773 NShFF=           0 MinMC=       7
           NShCPU=       87773 NBCPU=        3039 AvBCPU=        28.9
           NShGPU=           0 NBGPU=           0 AvBGPU=         0.0
 IPart=  4 NShTot=      110761 NShNF=      110761 NShFF=           0 MinMC=       7
           NShCPU=      110761 NBCPU=        4059 AvBCPU=        27.3
           NShGPU=           0 NBGPU=           0 AvBGPU=         0.0
 IPart= 19 NShTot=       91299 NShNF=       91299 NShFF=           0 MinMC=       7
           NShCPU=       91299 NBCPU=        3876 AvBCPU=        23.6
           NShGPU=           0 NBGPU=           0 AvBGPU=         0.0
 IPart=  0 NShTot=       96809 NShNF=       96809 NShFF=           0 MinMC=       7
           NShCPU=       96809 NBCPU=        4376 AvBCPU=        22.1
           NShGPU=           0 NBGPU=           0 AvBGPU=         0.0
 IPart=  9 NShTot=      106808 NShNF=      106808 NShFF=           0 MinMC=       7
           NShCPU=      106808 NBCPU=        4238 AvBCPU=        25.2
           NShGPU=           0 NBGPU=           0 AvBGPU=         0.0
 IPart= 11 NShTot=       70494 NShNF=       70494 NShFF=           0 MinMC=       7
           NShCPU=       70494 NBCPU=        2953 AvBCPU=        23.9
           NShGPU=           0 NBGPU=           0 AvBGPU=         0.0
 IPart=  6 NShTot=       81768 NShNF=       81768 NShFF=           0 MinMC=       7
           NShCPU=       81768 NBCPU=        3532 AvBCPU=        23.2
           NShGPU=           0 NBGPU=           0 AvBGPU=         0.0
 IPart=  8 NShTot=       89470 NShNF=       89470 NShFF=           0 MinMC=       7
           NShCPU=       89470 NBCPU=        4051 AvBCPU=        22.1
           NShGPU=           0 NBGPU=           0 AvBGPU=         0.0
 IPart=  5 NShTot=       84367 NShNF=       84367 NShFF=           0 MinMC=       7
           NShCPU=       84367 NBCPU=        3848 AvBCPU=        21.9
           NShGPU=           0 NBGPU=           0 AvBGPU=         0.0
 IPart= 17 NShTot=       97968 NShNF=       97968 NShFF=           0 MinMC=       7
           NShCPU=       97968 NBCPU=        4469 AvBCPU=        21.9
           NShGPU=           0 NBGPU=           0 AvBGPU=         0.0
 IPart=  1 NShTot=      116066 NShNF=      116066 NShFF=           0 MinMC=       7
           NShCPU=      116066 NBCPU=        4568 AvBCPU=        25.4
           NShGPU=           0 NBGPU=           0 AvBGPU=         0.0
 IPart=  7 NShTot=      110241 NShNF=      110241 NShFF=           0 MinMC=       7
           NShCPU=      110241 NBCPU=        4330 AvBCPU=        25.5
           NShGPU=           0 NBGPU=           0 AvBGPU=         0.0
 IPart= 14 NShTot=      103624 NShNF=      103624 NShFF=           0 MinMC=       7
           NShCPU=      103624 NBCPU=        4208 AvBCPU=        24.6
           NShGPU=           0 NBGPU=           0 AvBGPU=         0.0
 CoulSu:  NxtVal=        2627585 LenVP=       33497020 MinMC=       7.
 ReadGW:  IGet=0 IStart=           1 Next=           1 LGW=           0.
 Remaining memory in FofDFT      639.96 Mw
 CkSvGd:  ISavGI=        -1 IRadAn=       5 IRASav=       5 ISavGd=        -1.
 CalDSu-InSpLW:  IPartL=    0 NPrtUS=   20 NPrtUL=    1 DoSpLW=F IThBeg=    0 IThEnd=   19 NThAct=   20.
 CalDSu:  NPrtUS=  20 ThrOK=T IAlg=1 NPAlg=2 DoDPD=T LenP=       19110 LenD1P=             0 GPUOK=F
          ISkipM=0 DoSpLW=F IThBeg=    0 IThEnd=   19.
 IPart=  0 IRanGd=          0 ScrnBf=T ScrnGd=T RCrit=4.00D+00 DoMicB=T.
 IPart= 14         9459 of        11014 points in      13 batches and       66 microbatches, Max-NSigAt=       9 Max-NSgAt2=       9
 IPart= 18         9690 of        10810 points in      10 batches and       59 microbatches, Max-NSigAt=       9 Max-NSgAt2=       9
 IPart=  6         9745 of        10916 points in      10 batches and       61 microbatches, Max-NSigAt=       9 Max-NSgAt2=       9
 IPart= 16         7524 of         8316 points in       9 batches and       72 microbatches, Max-NSigAt=       9 Max-NSgAt2=       9
 IPart=  2        10352 of        12192 points in      12 batches and       49 microbatches, Max-NSigAt=       9 Max-NSgAt2=       9
 IPart= 11         9549 of        10014 points in       8 batches and       48 microbatches, Max-NSigAt=       9 Max-NSgAt2=       9
 IPart=  9         8247 of         8892 points in       9 batches and       56 microbatches, Max-NSigAt=       9 Max-NSgAt2=       9
 IPart=  4        10121 of        11120 points in      10 batches and       46 microbatches, Max-NSigAt=       9 Max-NSgAt2=       9
 IPart=  5         8915 of         9468 points in       9 batches and       50 microbatches, Max-NSigAt=       9 Max-NSgAt2=       9
 IPart= 13         8771 of         9264 points in       9 batches and       48 microbatches, Max-NSigAt=       9 Max-NSgAt2=       9
 IPart= 12        10844 of        12128 points in      10 batches and       63 microbatches, Max-NSigAt=       9 Max-NSgAt2=       9
 IPart=  8         7917 of         8484 points in       9 batches and       56 microbatches, Max-NSigAt=       9 Max-NSgAt2=       9
 IPart= 10         8286 of         8940 points in       8 batches and       59 microbatches, Max-NSigAt=       9 Max-NSgAt2=       9
 IPart= 19         8641 of         9144 points in       8 batches and       46 microbatches, Max-NSigAt=       9 Max-NSgAt2=       9
 IPart=  7         8900 of         9222 points in       8 batches and       41 microbatches, Max-NSigAt=       9 Max-NSgAt2=       9
 IPart=  1         9036 of         9468 points in       9 batches and       47 microbatches, Max-NSigAt=       9 Max-NSgAt2=       9
 IPart= 15         8815 of         9482 points in      10 batches and       63 microbatches, Max-NSigAt=       9 Max-NSgAt2=       9
 IPart=  0         8879 of         9468 points in       9 batches and       47 microbatches, Max-NSigAt=       9 Max-NSgAt2=       9
 IPart=  3         8660 of         9222 points in       8 batches and       63 microbatches, Max-NSigAt=       9 Max-NSgAt2=       9
 IPart= 17        11627 of        12608 points in      10 batches and       52 microbatches, Max-NSigAt=       9 Max-NSgAt2=       9
 Polarizability after L703:
                1             2             3 
      1  0.000000D+00
      2  0.000000D+00  0.000000D+00
      3  0.000000D+00  0.000000D+00  0.000000D+00
 Dipole Derivatives after L703:
                 1             2             3             4             5 
      1  -0.132353D+01 -0.515133D+00 -0.207847D-02 -0.371200D-01  0.132453D+00
      2  -0.200330D+00 -0.282343D+00 -0.113473D-02  0.120801D+00 -0.785155D+00
      3   0.131849D-01 -0.187468D-02 -0.368593D+00  0.910840D-02 -0.611707D-02
                 6             7             8             9            10 
      1  -0.520478D-02 -0.108592D+01 -0.135457D+00  0.103721D-02  0.122940D+00
      2   0.668351D-02  0.954071D-01 -0.785180D+00  0.415853D-02  0.249551D-01
      3  -0.660336D+00 -0.229975D-01 -0.845502D-03 -0.936686D+00  0.585273D-01
                11            12            13            14            15 
      1   0.495077D-02  0.604075D-01  0.131793D+00 -0.267263D-02 -0.628468D-01
      2   0.313852D+00  0.234815D+00  0.132142D-01  0.310369D+00 -0.225211D+00
      3   0.152285D+00  0.368620D+00 -0.610998D-01 -0.160271D+00  0.359575D+00
                16            17            18            19            20 
      1   0.243786D+00  0.177231D+00 -0.478062D+00  0.683556D+00 -0.461447D+00
      2   0.739131D-01  0.189475D+00 -0.218494D+00 -0.193483D+00  0.248775D+00
      3  -0.912218D-01 -0.134311D+00  0.531001D+00  0.989249D-01 -0.894015D-01
                21            22            23            24            25 
      1   0.221361D+00  0.943522D-01  0.345489D+00  0.262136D+00  0.117015D+01
      2  -0.783394D-01  0.159344D-01  0.455659D+00  0.280571D+00  0.495880D-01
      3   0.126374D+00 -0.452967D-03  0.243450D+00  0.306340D+00 -0.397331D-02
                26            27 
      1   0.454585D+00  0.325029D-02
      2   0.334547D+00 -0.304809D-02
      3  -0.291394D-02  0.273704D+00
 Hessian after L703:
                1             2             3             4             5 
      1  0.608930D+00
      2  0.111372D-01  0.404735D+00
      3 -0.235337D-03 -0.327818D-02  0.544448D-01
      4 -0.216403D+00  0.969000D-01  0.210600D-03  0.551652D+00
      5  0.140740D+00 -0.206218D+00  0.160343D-02 -0.217290D-01  0.562248D+00
      6 -0.204686D-02  0.216316D-02 -0.592741D-01 -0.244118D-02 -0.772538D-02
      7 -0.380283D-01 -0.984647D-02 -0.106108D-02 -0.169843D+00 -0.544512D-01
      8  0.295910D-01  0.155563D-01 -0.456279D-03 -0.688903D-01 -0.118958D+00
      9 -0.244402D-02 -0.544472D-03  0.340128D-02  0.317343D-02  0.359447D-02
     10 -0.898767D-02  0.297338D-01  0.237915D-01 -0.565083D-01 -0.151775D-01
     11  0.147191D-01 -0.238951D-01 -0.212340D-01 -0.120510D-01 -0.116165D+00
     12  0.714554D-02 -0.269524D-02  0.809719D-02 -0.169104D-01 -0.913437D-01
     13 -0.881189D-02  0.297308D-01 -0.240852D-01 -0.551425D-01 -0.159787D-01
     14  0.151259D-01 -0.236909D-01  0.216740D-01 -0.137384D-01 -0.119075D+00
     15 -0.709964D-02  0.293266D-02  0.803152D-02  0.168656D-01  0.953719D-01
     16  0.152563D-02  0.816687D-03 -0.122678D-02 -0.582355D-02 -0.123475D-01
     17  0.885778D-04  0.123655D-02 -0.848388D-03 -0.353500D-02 -0.930448D-02
     18  0.112165D-02 -0.500828D-03  0.119147D-03 -0.135963D-02 -0.472399D-03
     19 -0.663205D-02 -0.458294D-02 -0.145175D-03 -0.151596D-01  0.224913D-01
     20 -0.339190D-02 -0.123826D-02 -0.212016D-03 -0.109699D-01  0.110184D-01
     21  0.115387D-02 -0.218006D-03  0.613531D-03  0.156021D-02 -0.574632D-03
     22  0.347424D-02  0.154060D-02  0.551349D-03 -0.405145D-03 -0.238316D-01
     23  0.101683D-02  0.213936D-02  0.111435D-02  0.114650D-02 -0.136431D-01
     24 -0.415387D-03  0.432687D-03  0.123537D-04 -0.114758D-02 -0.172451D-03
     25 -0.335067D+00 -0.155430D+00  0.220012D-02 -0.323668D-01 -0.197155D-01
     26 -0.209026D+00 -0.168624D+00  0.163702D-02  0.328672D-01  0.100970D-01
     27  0.282018D-02  0.170821D-02 -0.154457D-01  0.488811D-04 -0.281182D-03
                6             7             8             9            10 
      6  0.535229D+00
      7  0.294233D-02  0.516078D+00
      8  0.692325D-03 -0.364580D-01  0.530087D+00
      9 -0.802885D-01  0.293098D-02 -0.165845D-01  0.531537D+00
     10 -0.179626D-01 -0.215066D-02 -0.192766D-01 -0.229364D-01  0.671006D-01
     11 -0.854073D-01 -0.411306D-02 -0.913253D-02 -0.135022D-01  0.413661D-02
     12 -0.192792D+00  0.412404D-03  0.135584D-02  0.667018D-03  0.127827D-01
     13  0.179812D-01 -0.512941D-02 -0.155671D-01  0.252858D-01  0.250017D-02
     14  0.905406D-01 -0.308717D-02 -0.792924D-02  0.145017D-01  0.764814D-03
     15 -0.200247D+00  0.609731D-03 -0.811180D-03  0.773966D-03  0.347147D-02
     16  0.288265D-01 -0.607168D-01 -0.154998D-01  0.427179D-01  0.143118D-02
     17  0.156014D-01 -0.155618D-01 -0.776269D-01  0.729853D-01  0.686899D-03
     18  0.870726D-03  0.443478D-01  0.758638D-01 -0.249411D+00  0.302088D-03
     19 -0.675118D-02 -0.185428D+00  0.115749D+00 -0.518996D-01  0.183549D-03
     20 -0.413911D-02  0.119250D+00 -0.150280D+00  0.451236D-01  0.859012D-03
     21 -0.216837D-02 -0.533206D-01  0.454403D-01 -0.662749D-01  0.489038D-04
     22 -0.208443D-01 -0.516069D-01  0.388223D-02  0.402692D-02 -0.530062D-02
     23 -0.114190D-01  0.157834D-02 -0.179111D+00 -0.105379D+00 -0.254042D-02
     24 -0.643352D-03  0.346392D-02 -0.105191D+00 -0.140548D+00 -0.110778D-03
     25  0.296055D-03 -0.317516D-02  0.646945D-02 -0.854988D-03  0.173179D-02
     26 -0.306676D-03  0.268926D-02 -0.260554D-02 -0.195346D-03  0.813386D-03
     27 -0.686199D-03 -0.325532D-03 -0.309142D-03  0.142472D-03  0.613170D-03
               11            12            13            14            15 
     11  0.138695D+00
     12  0.106371D+00  0.204399D+00
     13  0.726731D-03 -0.348967D-02  0.679886D-01
     14  0.111745D-01 -0.137268D-01  0.375252D-02  0.139324D+00
     15  0.132682D-01 -0.234931D-01 -0.142754D-01 -0.111515D+00  0.211973D+00
     16  0.819793D-03 -0.272390D-03 -0.471600D-02 -0.275940D-02 -0.843767D-04
     17  0.288863D-03  0.114166D-03 -0.383945D-02 -0.750197D-03 -0.266372D-03
     18  0.300862D-04  0.153487D-02 -0.467298D-03 -0.396213D-03  0.175903D-02
     19 -0.763785D-03 -0.482077D-03  0.975142D-03  0.187191D-03  0.933487D-03
     20 -0.280655D-03 -0.391623D-03  0.366296D-03  0.108024D-02  0.596504D-04
     21 -0.118224D-03 -0.147196D-03  0.156028D-03 -0.277867D-03  0.456266D-03
     22 -0.265302D-02  0.121119D-03  0.560959D-03  0.632216D-03  0.299370D-03
     23 -0.590807D-03  0.101544D-02  0.134876D-05 -0.726832D-04  0.275016D-03
     24 -0.196929D-03  0.138182D-02 -0.432776D-03  0.256560D-04  0.362170D-03
     25 -0.821308D-03  0.692749D-03  0.177499D-02 -0.877633D-03 -0.720296D-03
     26 -0.950365D-04 -0.699335D-03  0.807496D-03 -0.598934D-04  0.685540D-03
     27  0.789089D-03  0.352021D-03 -0.672689D-03 -0.825849D-03  0.384083D-03
               16            17            18            19            20 
     16  0.638723D-01
     17  0.221448D-01  0.837049D-01
     18 -0.484580D-01 -0.833633D-01  0.269715D+00
     19  0.546417D-02 -0.498531D-02  0.129535D-02  0.201741D+00
     20  0.682569D-02 -0.700167D-02  0.186194D-02 -0.128437D+00  0.160288D+00
     21 -0.219608D-01  0.180021D-01 -0.725264D-02  0.562626D-01 -0.503969D-01
     22 -0.116199D-02  0.489164D-02  0.315692D-02  0.156086D-03  0.165368D-01
     23 -0.663819D-04  0.949916D-02  0.705977D-02 -0.603839D-03 -0.141926D-01
     24  0.690747D-03 -0.223795D-01 -0.173520D-01  0.898118D-03  0.796078D-02
     25  0.125054D-03  0.109611D-03  0.610915D-04 -0.130065D-02 -0.103878D-02
     26  0.661886D-04 -0.462947D-04 -0.828484D-04  0.945560D-03  0.607057D-03
     27 -0.232863D-03  0.154543D-03  0.169755D-04 -0.111489D-03  0.133636D-03
               21            22            23            24            25 
     21  0.681135D-01
     22  0.156926D-01  0.536832D-01
     23 -0.119911D-01 -0.972821D-03  0.195817D+00
     24  0.613756D-02 -0.304214D-02  0.119210D+00  0.150575D+00
     25  0.407272D-03  0.600188D-03  0.440439D-03  0.958785D-04  0.367678D+00
     26  0.134333D-03 -0.261059D-04  0.154643D-03  0.310832D-03  0.170863D+00
     27  0.522281D-03  0.382303D-04  0.114208D-03  0.738855D-04 -0.217788D-02
               26            27 
     26  0.160572D+00
     27 -0.148352D-02  0.146402D-01
 Leave Link  703 at Thu May 23 01:51:52 2019, MaxMem=   671088640 cpu:             559.5 elap:              28.0
 (Enter /shared/centos7/gaussian/g16/l716.exe)
 FrcOut:
 IF    =       349 IFX   =       382 IFXYZ =       409
 IFFX  =       436 IFFFX =       814 IFLen =        33
 IFFLen=       378 IFFFLn=         0 IEDerv=       814
 LEDerv=      1349 IFroze=      2503 ICStrt=     63511
 Dipole        = 1.20017418D-01 5.83355731D-01-8.39353270D-03
 DipoleDeriv   =-1.32352909D+00-2.00329667D-01 1.31848730D-02
                -5.15132604D-01-2.82343091D-01-1.87468181D-03
                -2.07847087D-03-1.13472566D-03-3.68593224D-01
                -3.71200252D-02 1.20800858D-01 9.10840161D-03
                 1.32453139D-01-7.85154563D-01-6.11707244D-03
                -5.20478462D-03 6.68351202D-03-6.60335908D-01
                -1.08592468D+00 9.54070842D-02-2.29975389D-02
                -1.35457288D-01-7.85179503D-01-8.45502475D-04
                 1.03721240D-03 4.15853169D-03-9.36685682D-01
                 1.22940239D-01 2.49550511D-02 5.85272982D-02
                 4.95077344D-03 3.13852217D-01 1.52284907D-01
                 6.04075287D-02 2.34815018D-01 3.68619897D-01
                 1.31793360D-01 1.32141915D-02-6.10998383D-02
                -2.67262907D-03 3.10368603D-01-1.60271315D-01
                -6.28468260D-02-2.25211134D-01 3.59575001D-01
                 2.43785754D-01 7.39130595D-02-9.12218200D-02
                 1.77231048D-01 1.89475334D-01-1.34310737D-01
                -4.78062413D-01-2.18494315D-01 5.31000975D-01
                 6.83556090D-01-1.93482985D-01 9.89249003D-02
                -4.61446959D-01 2.48775192D-01-8.94015391D-02
                 2.21361474D-01-7.83393742D-02 1.26374288D-01
                 9.43522485D-02 1.59343880D-02-4.52967473D-04
                 3.45489320D-01 4.55658978D-01 2.43449881D-01
                 2.62135987D-01 2.80570575D-01 3.06340297D-01
                 1.17014610D+00 4.95880197D-02-3.97330838D-03
                 4.54585200D-01 3.34546834D-01-2.91394071D-03
                 3.25029280D-03-3.04808809D-03 2.73704356D-01
 Polarizability= 0.00000000D+00 0.00000000D+00 0.00000000D+00
                 0.00000000D+00 0.00000000D+00 0.00000000D+00
 Quadrupole    = 1.81603475D+00-1.11772903D+00-6.98305713D-01
                 1.46679745D+00 8.12984642D-03 1.79975790D-02
 Forces in standard orientation:
 -------------------------------------------------------------------
 Center     Atomic                   Forces (Hartrees/Bohr)
 Number     Number              X              Y              Z
 -------------------------------------------------------------------
      1        8          -0.036093012    0.008963556   -0.000871218
      2        6           0.017283044   -0.036046275   -0.000747200
      3        6           0.002722378    0.015873284    0.000086537
      4        1           0.003367970    0.006384403    0.010136770
      5        1           0.002512648    0.005533327   -0.006582904
      6        1          -0.002793228   -0.002316591    0.010091228
      7        1          -0.004213412    0.002102363   -0.001861676
      8        1          -0.000929621   -0.013993837   -0.009857460
      9        1           0.018143232    0.013499771   -0.000394078
 -------------------------------------------------------------------
 Cartesian Forces:  Max     0.036093012 RMS     0.012798997
 ***** Axes restored to original set *****
 Rotating derivatives, DoTrsp=F IDiff=-2 LEDeriv=   1348 LFDPrp=       0 LDFDPr=       0.
 -------------------------------------------------------------------
 Center     Atomic                   Forces (Hartrees/Bohr)
 Number     Number              X              Y              Z
 -------------------------------------------------------------------
      1        8           0.013032204    0.034442106   -0.005264294
      2        6          -0.036395709   -0.011952188    0.011449604
      3        6           0.014884261   -0.004920230   -0.003691894
      4        1           0.003116266   -0.004980145   -0.010970186
      5        1           0.006711582   -0.002763295    0.005252103
      6        1          -0.004498415    0.002326272   -0.009452742
      7        1           0.002988021    0.004004505    0.000821148
      8        1          -0.010771004    0.003618999    0.012835479
      9        1           0.010932794   -0.019776024   -0.000979219
 -------------------------------------------------------------------
 Cartesian Forces:  Max     0.036395709 RMS     0.012798997
 Force constants in Cartesian coordinates: 
[...]
     25 -0.300440D-02 -0.396694D-02  0.648263D-02 -0.467671D-02  0.627317D-02
     26  0.259717D-02 -0.394264D-05 -0.259603D-02  0.647429D-02  0.000000D+00
     27 -0.648888D-02  0.396927D-02  0.299701D-02  0.996573D-03 -0.626750D-02
     28  0.918998D-03 -0.669851D-02  0.604178D-02 -0.543633D-02  0.505496D-02
     29  0.652057D-02 -0.273552D-02 -0.303688D-02  0.571467D-02 -0.121883D-02
     30 -0.256548D-02  0.123769D-02  0.255615D-02  0.236948D-03 -0.748571D-02
     31 -0.255689D-02 -0.124086D-02  0.256080D-02 -0.590070D-02  0.748944D-02
     32  0.304468D-02  0.272213D-02 -0.651786D-02  0.525030D-02  0.121564D-02
     33 -0.604138D-02  0.669535D-02 -0.924828D-03 -0.227420D-03 -0.505123D-02
               21            22            23            24            25 
     21  0.494424D-01
     22  0.246284D-02  0.177537D-01
     23 -0.181867D-02 -0.765657D-02  0.256235D-01
     24 -0.184120D-03 -0.765929D-02 -0.158819D-01  0.256404D-01
     25 -0.994328D-03 -0.422182D-02  0.163565D-02  0.183138D-02  0.168916D-01
     26 -0.647128D-02 -0.273128D-02  0.762002D-03  0.763557D-03  0.653968D-02
     27  0.468128D-02 -0.422241D-02  0.182925D-02  0.163697D-02  0.696345D-02
     28  0.227630D-03  0.106934D-02 -0.232059D-03 -0.601245D-03  0.276185D-02
     29 -0.524932D-02  0.255988D-02 -0.110571D-02 -0.166907D-02 -0.759003D-02
     30  0.590324D-02  0.106875D-02 -0.384552D-04 -0.795659D-03 -0.716625D-02
     31 -0.233700D-03  0.106572D-02 -0.797497D-03 -0.354478D-04  0.208556D-02
     32 -0.571065D-02  0.255627D-02 -0.167114D-02 -0.110327D-02 -0.826632D-02
     33  0.544191D-02  0.106514D-02 -0.603894D-03 -0.229863D-03 -0.784255D-02
               26            27            28            29            30 
     26  0.163104D-01
     27  0.653977D-02  0.168930D-01
     28 -0.774369D-02 -0.784230D-02  0.164846D-01
     29  0.202706D-02 -0.826598D-02  0.597907D-02  0.155962D-01
     30 -0.774360D-02  0.208723D-02  0.588046D-02  0.530311D-02  0.151339D-01
     31 -0.774539D-02 -0.716919D-02  0.281592D-02 -0.701503D-02 -0.643883D-02
     32  0.202535D-02 -0.759288D-02 -0.768962D-02  0.260206D-02 -0.701617D-02
     33 -0.774530D-02  0.276033D-02 -0.778823D-02 -0.769098D-02  0.281465D-02
               31            32            33 
     31  0.151379D-01
     32  0.530697D-02  0.155986D-01
     33  0.588317D-02  0.598041D-02  0.164860D-01
 Leave Link  716 at Thu May 23 01:53:47 2019, MaxMem=   671088640 cpu:               5.2 elap:               0.3
 (Enter /shared/centos7/gaussian/g16/l103.exe)

 GradGradGradGradGradGradGradGradGradGradGradGradGradGradGradGradGradGrad
 Berny optimization.
 Red2BG is reusing G-inverse.
 Internal  Forces:  Max     0.000074577 RMS     0.000023722
 Search for a local minimum.
 Step number   1 out of a maximum of    2
 All quantities printed in internal units (Hartrees-Bohrs-Radians)
 Second derivative matrix not updated -- analytic derivatives used.
 ITU=  0
     Eigenvalues ---    0.00193   0.00286   0.04358   0.04414   0.05038
     Eigenvalues ---    0.06356   0.10182   0.12149   0.12341   0.13341
     Eigenvalues ---    0.15968   0.16558   0.24788   0.31658   0.32312
     Eigenvalues ---    0.32662   0.34432   0.34552   0.35198   0.40121
     Eigenvalues ---    0.54816
 Angle between quadratic step and forces=  73.66 degrees.
 Linear search not attempted -- first point.
 Iteration  1 RMS(Cart)=  0.00069927 RMS(Int)=  0.00000042
 Iteration  2 RMS(Cart)=  0.00000039 RMS(Int)=  0.00000005
 ITry= 1 IFail=0 DXMaxC= 1.69D-03 DCOld= 1.00D+10 DXMaxT= 3.00D-01 DXLimC= 3.00D+00 Rises=F
 Variable       Old X    -DE/DX   Delta X   Delta X   Delta X     New X
                                 (Linear)    (Quad)   (Total)
    R1        2.67907   0.00003   0.00000   0.00020   0.00020   2.67927
    R2        1.81209   0.00003   0.00000   0.00006   0.00006   1.81216
    R3        2.85632  -0.00001   0.00000  -0.00008  -0.00008   2.85624
    R4        2.06908   0.00002   0.00000   0.00005   0.00005   2.06914
    R5        2.06910   0.00002   0.00000   0.00003   0.00003   2.06914
    R6        2.05796   0.00002   0.00000   0.00005   0.00005   2.05802
    R7        2.05879  -0.00001   0.00000  -0.00004  -0.00004   2.05876
    R8        2.05793   0.00003   0.00000   0.00009   0.00009   2.05802
    A1        1.90308  -0.00001   0.00000  -0.00005  -0.00005   1.90303
    A2        1.87899  -0.00007   0.00000  -0.00045  -0.00045   1.87854
    A3        1.93217   0.00001   0.00000  -0.00020  -0.00020   1.93198
    A4        1.93211   0.00000   0.00000  -0.00014  -0.00014   1.93197
    A5        1.92036   0.00003   0.00000   0.00024   0.00024   1.92060
    A6        1.92005   0.00006   0.00000   0.00055   0.00055   1.92060
    A7        1.88055  -0.00002   0.00000   0.00000   0.00000   1.88055
    A8        1.92164   0.00000   0.00000  -0.00020  -0.00020   1.92144
    A9        1.93189   0.00003   0.00000   0.00039   0.00039   1.93228
   A10        1.92162  -0.00003   0.00000  -0.00018  -0.00018   1.92144
   A11        1.89850  -0.00001   0.00000  -0.00005  -0.00005   1.89845
   A12        1.89102   0.00001   0.00000  -0.00001  -0.00001   1.89101
   A13        1.89841   0.00000   0.00000   0.00004   0.00004   1.89845
    D1       -3.14046   0.00001   0.00000  -0.00118  -0.00118   3.14154
    D2       -1.04080   0.00000   0.00000  -0.00128  -0.00128  -1.04208
    D3        1.04347  -0.00002   0.00000  -0.00149  -0.00149   1.04198
    D4        1.04337  -0.00001   0.00000  -0.00155  -0.00155   1.04182
    D5       -3.14011  -0.00001   0.00000  -0.00149  -0.00149   3.14159
    D6       -1.04052  -0.00001   0.00000  -0.00130  -0.00130  -1.04182
    D7       -1.06374   0.00001   0.00000  -0.00118  -0.00118  -1.06491
    D8        1.03597   0.00002   0.00000  -0.00112  -0.00112   1.03485
    D9        3.13556   0.00002   0.00000  -0.00093  -0.00093   3.13463
   D10       -3.13296  -0.00002   0.00000  -0.00167  -0.00167  -3.13463
   D11       -1.03325  -0.00002   0.00000  -0.00161  -0.00161  -1.03486
   D12        1.06634  -0.00001   0.00000  -0.00143  -0.00143   1.06491
         Item               Value     Threshold  Converged?
 Maximum Force            0.000075     0.000450     YES
 RMS     Force            0.000024     0.000300     YES
 Maximum Displacement     0.001687     0.001800     YES
 RMS     Displacement     0.000699     0.001200     YES
 Predicted change in Energy=-9.273056D-08
 Optimization completed.
    -- Stationary point found.
                           ----------------------------
                           !   Optimized Parameters   !
                           ! (Angstroms and Degrees)  !
 --------------------------                            --------------------------
 ! Name  Definition              Value          Derivative Info.                !
 --------------------------------------------------------------------------------
 ! R1    R(1,2)                  1.4177         -DE/DX =    0.0                 !
 ! R2    R(1,9)                  0.9589         -DE/DX =    0.0                 !
 ! R3    R(2,3)                  1.5115         -DE/DX =    0.0                 !
 ! R4    R(2,4)                  1.0949         -DE/DX =    0.0                 !
 ! R5    R(2,5)                  1.0949         -DE/DX =    0.0                 !
 ! R6    R(3,6)                  1.089          -DE/DX =    0.0                 !
 ! R7    R(3,7)                  1.0895         -DE/DX =    0.0                 !
 ! R8    R(3,8)                  1.089          -DE/DX =    0.0                 !
 ! A1    A(2,1,9)              109.0385         -DE/DX =    0.0                 !
 ! A2    A(1,2,3)              107.6582         -DE/DX =   -0.0001              !
 ! A3    A(1,2,4)              110.7052         -DE/DX =    0.0                 !
 ! A4    A(1,2,5)              110.702          -DE/DX =    0.0                 !
 ! A5    A(3,2,4)              110.0284         -DE/DX =    0.0                 !
 ! A6    A(3,2,5)              110.0105         -DE/DX =    0.0001              !
 ! A7    A(4,2,5)              107.7473         -DE/DX =    0.0                 !
 ! A8    A(2,3,6)              110.102          -DE/DX =    0.0                 !
 ! A9    A(2,3,7)              110.6893         -DE/DX =    0.0                 !
 ! A10   A(2,3,8)              110.1009         -DE/DX =    0.0                 !
 ! A11   A(6,3,7)              108.776          -DE/DX =    0.0                 !
 ! A12   A(6,3,8)              108.3474         -DE/DX =    0.0                 !
 ! A13   A(7,3,8)              108.771          -DE/DX =    0.0                 !
 ! D1    D(9,1,2,3)            180.0647         -DE/DX =    0.0                 !
 ! D2    D(9,1,2,4)            -59.6332         -DE/DX =    0.0                 !
 ! D3    D(9,1,2,5)             59.7862         -DE/DX =    0.0                 !
 ! D4    D(1,2,3,6)             59.7808         -DE/DX =    0.0                 !
 ! D5    D(1,2,3,7)            180.0852         -DE/DX =    0.0                 !
 ! D6    D(1,2,3,8)            -59.6174         -DE/DX =    0.0                 !
 ! D7    D(4,2,3,6)            -60.9477         -DE/DX =    0.0                 !
 ! D8    D(4,2,3,7)             59.3567         -DE/DX =    0.0                 !
 ! D9    D(4,2,3,8)            179.6541         -DE/DX =    0.0                 !
 ! D10   D(5,2,3,6)           -179.5051         -DE/DX =    0.0                 !
 ! D11   D(5,2,3,7)            -59.2007         -DE/DX =    0.0                 !
 ! D12   D(5,2,3,8)             61.0966         -DE/DX =    0.0                 !
 --------------------------------------------------------------------------------
 GradGradGradGradGradGradGradGradGradGradGradGradGradGradGradGradGradGrad

 Leave Link  103 at Thu May 23 01:53:47 2019, MaxMem=   671088640 cpu:               0.3 elap:               0.0
 (Enter /shared/centos7/gaussian/g16/l9999.exe)

 ----------------------------------------------------------------------

 Electric dipole moment (input orientation):
 (Debye = 10**-18 statcoulomb cm , SI units = C m)
                  (au)            (Debye)         (10**-30 SI)
   Tot        0.616987D+00      0.156822D+01      0.523103D+01
   x         -0.586785D+00     -0.149146D+01     -0.497497D+01
   y          0.174531D+00      0.443613D+00      0.147973D+01
   z          0.767815D-01      0.195159D+00      0.650981D+00

 Dipole polarizability, Alpha (input orientation).
 (esu units = cm**3 , SI units = C**2 m**2 J**-1)
 Alpha(0;0):
               (au)            (10**-24 esu)      (10**-40 SI)
   iso        0.302801D+02      0.448704D+01      0.499251D+01
   aniso      0.580276D+01      0.859880D+00      0.956746D+00
   xx         0.294677D+02      0.436666D+01      0.485857D+01
   yx        -0.143948D+00     -0.213309D-01     -0.237338D-01
   yy         0.339293D+02      0.502780D+01      0.559419D+01
   zx        -0.295171D+00     -0.437398D-01     -0.486671D-01
   zy        -0.322353D+00     -0.477677D-01     -0.531488D-01
   zz         0.274432D+02      0.406667D+01      0.452478D+01

 ----------------------------------------------------------------------

 Dipole orientation:
     8          0.59426460          1.51293239         -2.60070245
     6          0.15580140         -0.66656453         -1.10572003
     6         -0.28227437         -2.86104500         -2.88080336
     1          1.78079840         -1.05567580          0.11456210
     1         -1.49654423         -0.39897232          0.11055830
     1          1.36621156         -3.14015533         -4.08072160
     1         -0.63340721         -4.59260429         -1.82390393
     1         -1.90523975         -2.48129487         -4.08780344
     1          0.87936740          2.93095132         -1.50908923

 Electric dipole moment (dipole orientation):
 (Debye = 10**-18 statcoulomb cm , SI units = C m)
                  (au)            (Debye)         (10**-30 SI)
   Tot        0.616987D+00      0.156822D+01      0.523103D+01
   x          0.000000D+00      0.000000D+00      0.000000D+00
   y          0.000000D+00      0.000000D+00      0.000000D+00
   z          0.616987D+00      0.156822D+01      0.523103D+01

 Dipole polarizability, Alpha (dipole orientation).
 (esu units = cm**3 , SI units = C**2 m**2 J**-1)
 Alpha(0;0):
               (au)            (10**-24 esu)      (10**-40 SI)
   iso        0.302801D+02      0.448704D+01      0.499251D+01
   aniso      0.580276D+01      0.859880D+00      0.956746D+00
   xx         0.276220D+02      0.409316D+01      0.455425D+01
   yx         0.118797D+01      0.176039D+00      0.195870D+00
   yy         0.333003D+02      0.493459D+01      0.549047D+01
   zx         0.250622D+00      0.371384D-01      0.413221D-01
   zy         0.126129D+01      0.186904D+00      0.207959D+00
   zz         0.299180D+02      0.443339D+01      0.493281D+01

 ----------------------------------------------------------------------

 Test job not archived.
 1\1\GINC-C0262\Freq\RM062X\CC-pVTZ\C2H6O1\HARMS.N\23-May-2019\0\\#P Ge
 om=AllCheck Guess=TCheck SCRF=Check Test GenChk RM062X/CC-pVTZ Freq\\G
 aussian input prepared by ASE\\0,1\O,1.5619275258,0.4295713388,-0.0986
 619869\C,0.4882143994,-0.4734205982,0.1053737498\C,1.0583818304,-1.873
 2292525,0.0965006707\H,-0.0069797054,-0.2762726822,1.0617987369\H,-0.2
 61064046,-0.3690276537,-0.686167614\H,1.7975688704,-1.9813232797,0.888
 9010841\H,0.2708965257,-2.6105717022,0.2485855143\H,1.5459165339,-2.07
 27329205,-0.8566259025\H,1.2215916779,1.3260567621,-0.0955556568\\Vers
 ion=EM64L-G16RevA.03\State=1-A\HF=-155.0262931\RMSD=1.974e-09\RMSF=3.0
 11e-05\ZeroPoint=0.0805944\Thermal=0.0849268\Dipole=-0.5867848,0.17453
 08,0.0767815\DipoleDeriv=-0.6230379,-0.356415,0.0321956,-0.3168529,-0.
 7359916,0.0570681,0.0302382,0.0628809,-0.5370522,0.5442524,0.2477176,-
 0.0354873,0.2555729,0.6305737,-0.0497857,-0.0358976,-0.0487855,0.39716
 37,0.0620641,0.0674327,-0.0030873,0.0190232,-0.0679596,0.0041597,-0.00
 05822,-0.0029133,0.0645347,-0.0522811,-0.0162259,0.0814626,0.0172453,-
 0.0380013,-0.0409482,0.1253731,-0.0337405,-0.140768,-0.1161565,-0.0163
 406,-0.0882221,0.0129645,-0.0311262,0.0281835,-0.135456,0.0301049,-0.0
 83962,-0.0205278,0.0516429,-0.0844945,0.0070294,0.0365944,-0.0080737,-
 0.0923831,0.0199159,-0.0320317,-0.0465601,-0.101127,0.0224215,-0.06571
 99,-0.0369344,0.0152458,0.0205498,0.0203313,0.0683768,0.0256934,0.0503
 967,0.0623439,0.0165091,0.0336271,-0.0047826,0.0743327,-0.044038,-0.07
 49897,0.2265536,0.0729187,0.0128677,0.0542283,0.2092179,-0.0010669,0.0
 138251,-0.0037557,0.3387285\Polar=29.4676867,-0.143948,33.9293049,-0.2
 951711,-0.3223527,27.4432402\Quadrupole=-1.347038,2.0086848,-0.6616469
 ,-0.9205432,0.1515632,-0.0026883\PG=C01 [X(C2H6O1)]\NImag=0\\0.3451062
 8,-0.05174622,0.66035810,-0.04110235,-0.02440085,0.05278631,-0.1929442
 5,-0.09313313,0.02361831,0.55009847,-0.05184689,-0.14860664,0.01193845
 ,-0.03318262,0.50179201,0.02147617,0.01799003,-0.06856626,0.00903424,0
 .01010783,0.59856824,0.00966946,-0.03816539,0.00116671,-0.10681333,0.0
 6750546,-0.00010914,0.57554949,0.00279330,-0.03845159,0.00181739,0.050
 95495,-0.18652881,-0.00191479,0.03600868,0.51261487,-0.00099541,0.0077
 7002,0.00358245,0.00075123,-0.00431873,-0.08292455,-0.00087588,-0.0015
 4687,0.58277435,-0.02264688,-0.00746690,0.02659453,-0.09374352,0.02216
 296,0.08578768,-0.00456520,0.00438988,0.01135277,0.10962649,-0.0216144
 7,-0.00137958,0.02337136,0.02482309,-0.06138776,-0.04573571,0.01415758
 ,-0.00713183,-0.02964653,-0.01819414,0.06909998,0.00699010,0.00665327,
 0.00242954,0.08967105,-0.04533434,-0.24918519,-0.00115142,-0.00016574,
 0.00118074,-0.10513083,0.04557138,0.26484855,-0.02922308,-0.01117393,-
 0.01573183,-0.15507495,0.02068852,-0.11726547,-0.00728017,0.00326811,-
 0.00973382,0.01074467,-0.00064581,0.00898948,0.18027229,-0.02736468,-0
 .00394215,-0.01511580,0.02291996,-0.05444884,0.02106704,0.02223278,-0.
 00425985,0.02508872,-0.00365152,0.00281513,-0.00636731,-0.01498388,0.0
 6205375,0.00547003,-0.00281806,0.01157665,-0.12139608,0.02138507,-0.19
 475768,0.00125224,-0.00022253,0.00099209,-0.01844777,0.00429839,-0.021
 83490,0.13326094,-0.02270097,0.20124804,0.00168866,-0.00060495,0.00087
 492,-0.01153241,0.00111215,-0.01057855,-0.17067908,0.01711440,-0.13354
 402,0.00003843,-0.00044594,0.00025638,0.00015880,0.00274224,0.00072667
 ,0.18384900,-0.00088796,0.00315491,-0.00107888,0.02410061,-0.00473900,
 0.02559828,0.01483607,-0.04857764,0.01639672,-0.00079557,0.00150413,-0
 .00024068,0.00211931,-0.00609241,-0.00017646,-0.02130104,0.05242599,0.
 00044099,0.00041639,-0.00016471,0.00087642,-0.00011890,0.00072148,-0.1
 3421172,0.01782993,-0.19454549,0.00036064,0.00066758,0.00088240,0.0000
 8153,-0.00056260,0.00156360,0.14731947,-0.01918523,0.20678692,-0.00008
 409,0.00344243,-0.00005104,0.01017114,0.00802636,-0.00228074,-0.191013
 96,-0.13286172,0.02777406,0.00036803,-0.00081431,0.00016727,0.00034380
 ,-0.00087174,-0.00019409,-0.01468089,-0.01391927,0.00470066,0.20407812
 ,0.00349556,-0.00819030,-0.00003745,-0.02606154,-0.01409972,0.00435862
 ,-0.13007217,-0.17040968,0.02523086,0.00019777,0.00085708,-0.00084670,
 0.00042030,0.00092704,0.00065907,0.00328740,0.00243171,-0.00145848,0.1
 4471355,0.18511944,-0.00005329,-0.00001897,0.00081706,-0.00049013,-0.0
 0055973,-0.00260083,0.02762184,0.02562902,-0.05185918,-0.00014727,0.00
 021239,-0.00002747,-0.00000150,-0.00006586,-0.00005927,-0.01626938,-0.
 01746587,0.00417465,-0.03041259,-0.02816771,0.05143951,0.00120182,-0.0
 0086235,-0.00121149,-0.00817210,0.00242627,0.01340509,-0.10049417,0.02
 145832,0.10449829,-0.00002267,0.00282740,-0.00057184,-0.00004254,-0.00
 063213,0.00007990,0.01116434,-0.00424133,-0.01984358,-0.00998489,0.005
 42368,0.01968944,0.10644954,-0.00065828,0.00321831,0.00096497,0.015936
 88,-0.00767090,-0.03066377,0.01974929,-0.05447098,-0.04001612,0.002197
 97,-0.00600666,0.00036280,-0.00072178,0.00146839,0.00040565,-0.0017287
 4,-0.00058859,0.00250270,-0.00862997,0.00451030,0.02046839,-0.02624312
 ,0.05903334,-0.00076999,-0.00053422,0.00026564,0.00003759,0.00030851,0
 .00029364,0.10536345,-0.04202337,-0.25883496,0.00014532,0.00056280,0.0
 0165506,0.00000061,-0.00056670,0.00098917,0.01111898,-0.00369211,-0.01
 950978,0.00035692,-0.00004389,-0.00260093,-0.11601885,0.04588626,0.277
 58026,-0.11276792,0.19971045,0.00584224,0.00801095,-0.03689220,0.00053
 072,-0.00437304,-0.00312592,0.00077279,0.00020064,-0.00009340,0.000779
 80,0.00010117,-0.00039101,-0.00075183,-0.00000685,0.00008918,0.0002755
 9,0.00080274,-0.00140454,0.00006289,-0.00009934,0.00009775,-0.00023403
 ,0.10813164,0.14782964,-0.46616105,0.00254082,0.01364179,-0.02431033,-
 0.00080753,-0.00625228,-0.00278449,0.00104193,0.00115956,0.00162952,0.
 00036733,0.00102917,0.00147895,-0.00083015,-0.00017551,0.00048089,-0.0
 0009138,0.00091469,-0.00114588,-0.00003167,-0.00015674,0.00050680,0.00
 010273,-0.15799032,0.49030558,0.00854374,-0.00505761,-0.00272669,-0.00
 210263,0.00659183,-0.00154885,0.00094392,0.00059697,-0.00036546,-0.000
 51506,0.00069835,0.00005128,0.00040007,-0.00077653,0.00028231,0.000095
 52,-0.00015576,0.00009093,-0.00006044,0.00030570,0.00071646,-0.0000269
 6,0.00008913,0.00016190,-0.00727817,-0.00229208,0.00333812\\-0.0000566
 9,0.00003435,-0.00000819,0.00005503,0.00008957,0.00002928,0.00001041,-
 0.00002669,-0.00003433,0.00000281,-0.00002400,-0.00001360,0.00001189,-
 0.00004670,0.00001089,-0.00001403,0.00000358,-0.00001170,-0.00001891,0
 .00000494,-0.00000726,-0.00000505,-0.00000757,0.00003260,0.00001453,-0
 .00002749,0.00000231\\\@


 TERRY FORSTER, PORTLY ATLANTA BRAVES RELIEVER,
 ANNOUNCING THAT HE WAS GOING TO A FAT FARM:
 "A WAIST IS A TERRIBLE THING TO MIND."
 Job cpu time:       0 days  0 hours 25 minutes  0.4 seconds.
 Elapsed time:       0 days  0 hours  1 minutes 15.7 seconds.
 File lengths (MBytes):  RWF=    272 Int=      0 D2E=      0 Chk=     32 Scr=     32
 Normal termination of Gaussian 16 at Thu May 23 01:53:47 2019.
