 Entering Gaussian System, Link 0=g16
 Initial command:
 /shared/centos7/gaussian/g16/l1.exe "/scratch/harms.n/gauss_scrdir/Gau-36051.inp" -scrdir="/scratch/harms.n/gauss_scrdir/"
 Entering Link 1 = /shared/centos7/gaussian/g16/l1.exe PID=     36052.
  
 Copyright (c) 1988,1990,1992,1993,1995,1998,2003,2009,2016,
            Gaussian, Inc.  All Rights Reserved.
  
 This is part of the Gaussian(R) 16 program.  It is based on
 the Gaussian(R) 09 system (copyright 2009, Gaussian, Inc.),
 the Gaussian(R) 03 system (copyright 2003, Gaussian, Inc.),
 the Gaussian(R) 98 system (copyright 1998, Gaussian, Inc.),
 the Gaussian(R) 94 system (copyright 1995, Gaussian, Inc.),
 the Gaussian 92(TM) system (copyright 1992, Gaussian, Inc.),
 the Gaussian 90(TM) system (copyright 1990, Gaussian, Inc.),
 the Gaussian 88(TM) system (copyright 1988, Gaussian, Inc.),
 the Gaussian 86(TM) system (copyright 1986, Carnegie Mellon
 University), and the Gaussian 82(TM) system (copyright 1983,
 Carnegie Mellon University). Gaussian is a federally registered
 trademark of Gaussian, Inc.
  
 This software contains proprietary and confidential information,
 including trade secrets, belonging to Gaussian, Inc.
  
 This software is provided under written license and may be
 used, copied, transmitted, or stored only in accord with that
 written license.
  
 The following legend is applicable only to US Government
 contracts under FAR:
  
                    RESTRICTED RIGHTS LEGEND
  
 Use, reproduction and disclosure by the US Government is
 subject to restrictions as set forth in subparagraphs (a)
 and (c) of the Commercial Computer Software - Restricted
 Rights clause in FAR 52.227-19.
  
 Gaussian, Inc.
 340 Quinnipiac St., Bldg. 40, Wallingford CT 06492
  
  
 ---------------------------------------------------------------
 Warning -- This program may not be used in any manner that
 competes with the business of Gaussian, Inc. or will provide
 assistance to any competitor of Gaussian, Inc.  The licensee
 of this program is prohibited from giving any competitor of
 Gaussian, Inc. access to this program.  By using this program,
 the user acknowledges that Gaussian, Inc. is engaged in the
 business of creating and licensing software in the field of
 computational chemistry and represents and warrants to the
 licensee that it is not a competitor of Gaussian, Inc. and that
 it will not use this program in any manner prohibited above.
 ---------------------------------------------------------------
  

 Cite this work as:
 Gaussian 16, Revision A.03,
 M. J. Frisch, G. W. Trucks, H. B. Schlegel, G. E. Scuseria, 
 M. A. Robb, J. R. Cheeseman, G. Scalmani, V. Barone, 
 G. A. Petersson, H. Nakatsuji, X. Li, M. Caricato, A. V. Marenich, 
 J. Bloino, B. G. Janesko, R. Gomperts, B. Mennucci, H. P. Hratchian, 
 J. V. Ortiz, A. F. Izmaylov, J. L. Sonnenberg, D. Williams-Young, 
 F. Ding, F. Lipparini, F. Egidi, J. Goings, B. Peng, A. Petrone, 
 T. Henderson, D. Ranasinghe, V. G. Zakrzewski, J. Gao, N. Rega, 
 G. Zheng, W. Liang, M. Hada, M. Ehara, K. Toyota, R. Fukuda, 
 J. Hasegawa, M. Ishida, T. Nakajima, Y. Honda, O. Kitao, H. Nakai, 
 T. Vreven, K. Throssell, J. A. Montgomery, Jr., J. E. Peralta, 
 F. Ogliaro, M. J. Bearpark, J. J. Heyd, E. N. Brothers, K. N. Kudin, 
 V. N. Staroverov, T. A. Keith, R. Kobayashi, J. Normand, 
 K. Raghavachari, A. P. Rendell, J. C. Burant, S. S. Iyengar, 
 J. Tomasi, M. Cossi, J. M. Millam, M. Klene, C. Adamo, R. Cammi, 
 J. W. Ochterski, R. L. Martin, K. Morokuma, O. Farkas, 
 J. B. Foresman, and D. J. Fox, Gaussian, Inc., Wallingford CT, 2016.
 
 ******************************************
 Gaussian 16:  EM64L-G16RevA.03 25-Dec-2016
                23-May-2019 
 ******************************************
 %nprocshared=20
 Will use up to   20 processors via shared memory.
 %mem=5GB
 ----------------------------------------------------------------------
 #p m062x/cc-pVTZ opt=(calcfc,maxcycles=900) freq IOP(7/33=1,2/16=3) sc
 f=(maxcycle=900)
 ----------------------------------------------------------------------
 1/6=900,10=4,18=20,19=15,26=3,38=1/1,3;
 2/9=110,12=2,16=3,17=6,18=5,40=1/2;
 3/5=16,6=1,11=2,25=1,30=1,71=2,74=-55,140=1/1,2,3;
 4//1;
 5/5=2,7=900,38=5/2;
 8/6=4,10=90,11=11/1;
 11/6=1,8=1,9=11,15=111,16=1/1,2,10;
 10/6=1,13=1/2;
 6/7=2,8=2,9=2,10=2,28=1/1;
 7/10=1,18=20,25=1,33=1/1,2,3,16;
 1/6=900,10=4,18=20,19=15,26=3/3(2);
 2/9=110,16=3/2;
 99//99;
 2/9=110,16=3/2;
 3/5=16,6=1,11=2,25=1,30=1,71=1,74=-55/1,2,3;
 4/5=5,16=3,69=1/1;
 5/5=2,7=900,38=5/2;
 7/33=1/1,2,3,16;
 1/6=900,18=20,19=15,26=3/3(-5);
 2/9=110,16=3/2;
 6/7=2,8=2,9=2,10=2,19=2,28=1/1;
 99/9=1/99;
 Leave Link    1 at Thu May 23 01:50:37 2019, MaxMem=   671088640 cpu:              48.8 elap:               2.6
 (Enter /shared/centos7/gaussian/g16/l101.exe)
 ------------------------------
 Gaussian input prepared by ASE
 ------------------------------
 Symbolic Z-matrix:
 Charge =  0 Multiplicity = 1
 O                     1.53875   0.41824  -0.20789 
 C                     0.53281  -0.469     0.10217 
 C                    -0.79823   0.20286   0.38862 
 H                     0.39644  -1.18704  -0.7452 
 H                     0.84056  -1.08093   0.97909 
 H                    -1.28882   0.51864  -0.55121 
 H                    -1.47797  -0.47959   0.91168 
 H                    -0.66428   1.11021   1.02761 
 H                     1.1672    1.32727  -0.18747 
 
 ITRead=  0  0  0  0  0  0  0  0  0
 MicOpt= -1 -1 -1 -1 -1 -1 -1 -1 -1
 NAtoms=      9 NQM=        9 NQMF=       0 NMMI=      0 NMMIF=      0
                NMic=       0 NMicF=      0.
                    Isotopes and Nuclear Properties:
 (Nuclear quadrupole moments (NQMom) in fm**2, nuclear magnetic moments (NMagM)
  in nuclear magnetons)

  Atom         1           2           3           4           5           6           7           8           9
 IAtWgt=          16          12          12           1           1           1           1           1           1
 AtmWgt=  15.9949146  12.0000000  12.0000000   1.0078250   1.0078250   1.0078250   1.0078250   1.0078250   1.0078250
 NucSpn=           0           0           0           1           1           1           1           1           1
 AtZEff=  -0.0000000  -0.0000000  -0.0000000  -0.0000000  -0.0000000  -0.0000000  -0.0000000  -0.0000000  -0.0000000
 NQMom=    0.0000000   0.0000000   0.0000000   0.0000000   0.0000000   0.0000000   0.0000000   0.0000000   0.0000000
 NMagM=    0.0000000   0.0000000   0.0000000   2.7928460   2.7928460   2.7928460   2.7928460   2.7928460   2.7928460
 AtZNuc=   8.0000000   6.0000000   6.0000000   1.0000000   1.0000000   1.0000000   1.0000000   1.0000000   1.0000000
 Leave Link  101 at Thu May 23 01:50:37 2019, MaxMem=   671088640 cpu:               6.9 elap:               0.4
 (Enter /shared/centos7/gaussian/g16/l103.exe)

 GradGradGradGradGradGradGradGradGradGradGradGradGradGradGradGradGradGrad
 Berny optimization.
 Initialization pass.
                           ----------------------------
                           !    Initial Parameters    !
                           ! (Angstroms and Degrees)  !
 --------------------------                            --------------------------
 ! Name  Definition              Value          Derivative Info.                !
 --------------------------------------------------------------------------------
 ! R1    R(1,2)                  1.3767         calculate D2E/DX2 analytically  !
 ! R2    R(1,9)                  0.9822         calculate D2E/DX2 analytically  !
 ! R3    R(2,3)                  1.5183         calculate D2E/DX2 analytically  !
 ! R4    R(2,4)                  1.119          calculate D2E/DX2 analytically  !
 ! R5    R(2,5)                  1.1127         calculate D2E/DX2 analytically  !
 ! R6    R(3,6)                  1.1062         calculate D2E/DX2 analytically  !
 ! R7    R(3,7)                  1.0961         calculate D2E/DX2 analytically  !
 ! R8    R(3,8)                  1.1178         calculate D2E/DX2 analytically  !
 ! A1    A(2,1,9)              108.3826         calculate D2E/DX2 analytically  !
 ! A2    A(1,2,3)              113.4466         calculate D2E/DX2 analytically  !
 ! A3    A(1,2,4)              109.3926         calculate D2E/DX2 analytically  !
 ! A4    A(1,2,5)              109.2587         calculate D2E/DX2 analytically  !
 ! A5    A(3,2,4)              108.6615         calculate D2E/DX2 analytically  !
 ! A6    A(3,2,5)              109.7027         calculate D2E/DX2 analytically  !
 ! A7    A(4,2,5)              106.1163         calculate D2E/DX2 analytically  !
 ! A8    A(2,3,6)              110.7837         calculate D2E/DX2 analytically  !
 ! A9    A(2,3,7)              110.9892         calculate D2E/DX2 analytically  !
 ! A10   A(2,3,8)              111.2229         calculate D2E/DX2 analytically  !
 ! A11   A(6,3,7)              107.9473         calculate D2E/DX2 analytically  !
 ! A12   A(6,3,8)              107.8843         calculate D2E/DX2 analytically  !
 ! A13   A(7,3,8)              107.8731         calculate D2E/DX2 analytically  !
 ! D1    D(9,1,2,3)             -0.6627         calculate D2E/DX2 analytically  !
 ! D2    D(9,1,2,4)            120.8321         calculate D2E/DX2 analytically  !
 ! D3    D(9,1,2,5)           -123.4006         calculate D2E/DX2 analytically  !
 ! D4    D(1,2,3,6)             77.0339         calculate D2E/DX2 analytically  !
 ! D5    D(1,2,3,7)           -163.0573         calculate D2E/DX2 analytically  !
 ! D6    D(1,2,3,8)            -42.9499         calculate D2E/DX2 analytically  !
 ! D7    D(4,2,3,6)            -44.8691         calculate D2E/DX2 analytically  !
 ! D8    D(4,2,3,7)             75.0397         calculate D2E/DX2 analytically  !
 ! D9    D(4,2,3,8)           -164.853          calculate D2E/DX2 analytically  !
 ! D10   D(5,2,3,6)           -160.4735         calculate D2E/DX2 analytically  !
 ! D11   D(5,2,3,7)            -40.5647         calculate D2E/DX2 analytically  !
 ! D12   D(5,2,3,8)             79.5426         calculate D2E/DX2 analytically  !
 --------------------------------------------------------------------------------
 Trust Radius=3.00D-01 FncErr=1.00D-07 GrdErr=1.00D-06 EigMax=2.50D+02 EigMin=1.00D-04
 Number of steps in this run=    100 maximum allowed number of steps=    100.
 GradGradGradGradGradGradGradGradGradGradGradGradGradGradGradGradGradGrad

 Leave Link  103 at Thu May 23 01:50:38 2019, MaxMem=   671088640 cpu:               0.6 elap:               0.1
 (Enter /shared/centos7/gaussian/g16/l202.exe)
                          Input orientation:                          
 ---------------------------------------------------------------------
 Center     Atomic      Atomic             Coordinates (Angstroms)
 Number     Number       Type             X           Y           Z
 ---------------------------------------------------------------------
      1          8           0        1.538751    0.418239   -0.207891
      2          6           0        0.532813   -0.468996    0.102174
      3          6           0       -0.798225    0.202864    0.388619
      4          1           0        0.396439   -1.187043   -0.745196
      5          1           0        0.840557   -1.080931    0.979090
      6          1           0       -1.288823    0.518643   -0.551208
      7          1           0       -1.477966   -0.479590    0.911684
      8          1           0       -0.664282    1.110213    1.027615
      9          1           0        1.167204    1.327274   -0.187467
 ---------------------------------------------------------------------
                    Distance matrix (angstroms):
                    1          2          3          4          5
     1  O    0.000000
     2  C    1.376676   0.000000
     3  C    2.421501   1.518259   0.000000
     4  H    2.042181   1.119029   2.155134   0.000000
     5  H    2.035659   1.112722   2.163883   1.783722   0.000000
     6  H    2.850109   2.172717   1.106200   2.405640   3.071597
     7  H    3.340677   2.167637   1.096078   2.599834   2.396185
     8  H    2.618903   2.187093   1.117828   3.089559   2.658572
     9  H    0.982246   1.926896   2.336469   2.688295   2.695738
                    6          7          8          9
     6  H    0.000000
     7  H    1.781095   0.000000
     8  H    1.797968   1.789692   0.000000
     9  H    2.611180   3.386712   2.208592   0.000000
 Stoichiometry    C2H6O
 Framework group  C1[X(C2H6O)]
 Deg. of freedom    21
 Full point group                 C1      NOp   1
 Largest Abelian subgroup         C1      NOp   1
 Largest concise Abelian subgroup C1      NOp   1
                         Standard orientation:                         
 ---------------------------------------------------------------------
 Center     Atomic      Atomic             Coordinates (Angstroms)
 Number     Number       Type             X           Y           Z
 ---------------------------------------------------------------------
      1          8           0        1.229851   -0.249552   -0.000348
      2          6           0        0.113393    0.555900   -0.002603
      3          6           0       -1.191472   -0.220265   -0.000394
      4          1           0        0.134707    1.223032    0.895565
      5          1           0        0.148107    1.228839   -0.888097
      6          1           0       -1.410183   -0.617524    1.008580
      7          1           0       -2.029355    0.419526   -0.300409
      8          1           0       -1.149349   -1.084634   -0.707947
      9          1           0        0.935740   -1.186635    0.013080
 ---------------------------------------------------------------------
 Rotational constants (GHZ):          34.3781164           9.5750960           8.2805883
 Leave Link  202 at Thu May 23 01:50:38 2019, MaxMem=   671088640 cpu:               1.6 elap:               0.1
 (Enter /shared/centos7/gaussian/g16/l301.exe)
 Standard basis: CC-pVTZ (5D, 7F)
 Ernie: Thresh=  0.10000D-02 Tol=  0.10000D-05 Strict=F.
 Ernie:  9 primitive shells out of 126 were deleted.
 There are   195 symmetry adapted cartesian basis functions of A   symmetry.
 There are   174 symmetry adapted basis functions of A   symmetry.
   174 basis functions,   258 primitive gaussians,   195 cartesian basis functions
    13 alpha electrons       13 beta electrons
       nuclear repulsion energy        82.3048998908 Hartrees.
 IExCor= 4336 DFT=T Ex+Corr=M062X ExCW=0 ScaHFX=  0.540000
 ScaDFX=  1.000000  1.000000  1.000000  1.000000 ScalE2=  1.000000  1.000000
 IRadAn=      5 IRanWt=     -1 IRanGd=            0 ICorTp=0 IEmpDi=  4
 NAtoms=    9 NActive=    9 NUniq=    9 SFac= 1.00D+00 NAtFMM=   60 NAOKFM=F Big=F
 Integral buffers will be    131072 words long.
 Raffenetti 2 integral format.
 Two-electron integral symmetry is turned on.
 Leave Link  301 at Thu May 23 01:50:38 2019, MaxMem=   671088640 cpu:               1.8 elap:               0.1
 (Enter /shared/centos7/gaussian/g16/l302.exe)
 NPDir=0 NMtPBC=     1 NCelOv=     1 NCel=       1 NClECP=     1 NCelD=      1
         NCelK=      1 NCelE2=     1 NClLst=     1 CellRange=     0.0.
 One-electron integrals computed using PRISM.
 One-electron integral symmetry used in STVInt
 NBasis=   174 RedAO= T EigKep=  9.02D-04  NBF=   174
 NBsUse=   174 1.00D-06 EigRej= -1.00D+00 NBFU=   174
 Precomputing XC quadrature grid using
 IXCGrd= 4 IRadAn=           5 IRanWt=          -1 IRanGd=           0 AccXCQ= 0.00D+00.
 Generated NRdTot=       0 NPtTot=           0 NUsed=           0 NTot=          32
 NSgBfM=   195   195   195   195   195 MxSgAt=     9 MxSgA2=     9.
 Leave Link  302 at Thu May 23 01:50:38 2019, MaxMem=   671088640 cpu:               4.9 elap:               0.3
 (Enter /shared/centos7/gaussian/g16/l303.exe)
 DipDrv:  MaxL=1.
 Leave Link  303 at Thu May 23 01:50:38 2019, MaxMem=   671088640 cpu:               0.7 elap:               0.1
 (Enter /shared/centos7/gaussian/g16/l401.exe)
 ExpMin= 1.03D-01 ExpMax= 1.53D+04 ExpMxC= 5.22D+02 IAcc=3 IRadAn=         5 AccDes= 0.00D+00
 Harris functional with IExCor= 1009 and IRadAn=       5 diagonalized for initial guess.
 HarFok:  IExCor= 1009 AccDes= 0.00D+00 IRadAn=         5 IDoV= 1 UseB2=F ITyADJ=14
 ICtDFT=  3500011 ScaDFX=  1.000000  1.000000  1.000000  1.000000
 FoFCou: FMM=F IPFlag=           0 FMFlag=      100000 FMFlg1=           0
         NFxFlg=           0 DoJE=T BraDBF=F KetDBF=T FulRan=T
         wScrn=  0.000000 ICntrl=       500 IOpCl=  0 I1Cent=   200000004 NGrid=           0
         NMat0=    1 NMatS0=      1 NMatT0=    0 NMatD0=    1 NMtDS0=    0 NMtDT0=    0
 Petite list used in FoFCou.
 Harris En= -154.993042678095    
 JPrj=0 DoOrth=F DoCkMO=F.
 Leave Link  401 at Thu May 23 01:50:39 2019, MaxMem=   671088640 cpu:              12.5 elap:               0.7
 (Enter /shared/centos7/gaussian/g16/l502.exe)
 Keep R1 ints in memory in canonical form, NReq=136340328.
 FoFCou: FMM=F IPFlag=           0 FMFlag=           0 FMFlg1=           0
         NFxFlg=           0 DoJE=F BraDBF=F KetDBF=F FulRan=T
         wScrn=  0.000000 ICntrl=       600 IOpCl=  0 I1Cent=           0 NGrid=           0
         NMat0=    1 NMatS0=  15225 NMatT0=    0 NMatD0=    1 NMtDS0=    0 NMtDT0=    0
 Symmetry not used in FoFCou.
 Two-electron integral symmetry not used.
 Closed shell SCF:
 Using DIIS extrapolation, IDIIS=  1040.
 NGot=   671088640 LenX=   555098904 LenY=   555060438
 Requested convergence on RMS density matrix=1.00D-08 within 900 cycles.
 Requested convergence on MAX density matrix=1.00D-06.
 Requested convergence on             energy=1.00D-06.
 No special actions if energy rises.
 Integral accuracy reduced to 1.0D-05 until final iterations.

 Cycle   1  Pass 0  IDiag  1:
 E= -154.888438223685    
 DIIS: error= 2.93D-02 at cycle   1 NSaved=   1.
 NSaved= 1 IEnMin= 1 EnMin= -154.888438223685     IErMin= 1 ErrMin= 2.93D-02
 ErrMax= 2.93D-02  0.00D+00 EMaxC= 1.00D-01 BMatC= 1.65D-01 BMatP= 1.65D-01
 IDIUse=3 WtCom= 7.07D-01 WtEn= 2.93D-01
 Coeff-Com:  0.100D+01
 Coeff-En:   0.100D+01
 Coeff:      0.100D+01
 Gap=     0.334 Goal=   None    Shift=    0.000
 GapD=    0.334 DampG=1.000 DampE=0.500 DampFc=0.5000 IDamp=-1.
 Damping current iteration by 5.00D-01
 RMSDP=2.97D-03 MaxDP=7.01D-02              OVMax= 1.41D-01

 Cycle   2  Pass 0  IDiag  1:
 E= -154.955130118043     Delta-E=       -0.066691894357 Rises=F Damp=T
 DIIS: error= 7.87D-03 at cycle   2 NSaved=   2.
 NSaved= 2 IEnMin= 2 EnMin= -154.955130118043     IErMin= 2 ErrMin= 7.87D-03
 ErrMax= 7.87D-03  0.00D+00 EMaxC= 1.00D-01 BMatC= 9.83D-03 BMatP= 1.65D-01
 IDIUse=3 WtCom= 9.21D-01 WtEn= 7.87D-02
 Coeff-Com: -0.495D-01 0.105D+01
 Coeff-En:   0.000D+00 0.100D+01
 Coeff:     -0.456D-01 0.105D+01
 Gap=     0.418 Goal=   None    Shift=    0.000
 RMSDP=5.20D-04 MaxDP=1.15D-02 DE=-6.67D-02 OVMax= 7.20D-02

 Cycle   3  Pass 0  IDiag  1:
 E= -155.019529218950     Delta-E=       -0.064399100907 Rises=F Damp=F
 DIIS: error= 2.38D-03 at cycle   3 NSaved=   3.
 NSaved= 3 IEnMin= 3 EnMin= -155.019529218950     IErMin= 3 ErrMin= 2.38D-03
 ErrMax= 2.38D-03  0.00D+00 EMaxC= 1.00D-01 BMatC= 1.58D-03 BMatP= 9.83D-03
 IDIUse=3 WtCom= 9.76D-01 WtEn= 2.38D-02
 Coeff-Com: -0.483D-01 0.256D+00 0.793D+00
 Coeff-En:   0.000D+00 0.000D+00 0.100D+01
 Coeff:     -0.471D-01 0.250D+00 0.797D+00
 Gap=     0.402 Goal=   None    Shift=    0.000
 RMSDP=1.68D-04 MaxDP=4.98D-03 DE=-6.44D-02 OVMax= 1.03D-02

 Cycle   4  Pass 0  IDiag  1:
 E= -155.020207512548     Delta-E=       -0.000678293599 Rises=F Damp=F
 DIIS: error= 1.47D-03 at cycle   4 NSaved=   4.
 NSaved= 4 IEnMin= 4 EnMin= -155.020207512548     IErMin= 4 ErrMin= 1.47D-03
 ErrMax= 1.47D-03  0.00D+00 EMaxC= 1.00D-01 BMatC= 4.85D-04 BMatP= 1.58D-03
 IDIUse=3 WtCom= 9.85D-01 WtEn= 1.47D-02
 Coeff-Com: -0.161D-01 0.473D-01 0.387D+00 0.581D+00
 Coeff-En:   0.000D+00 0.000D+00 0.229D+00 0.771D+00
 Coeff:     -0.159D-01 0.466D-01 0.385D+00 0.584D+00
 Gap=     0.404 Goal=   None    Shift=    0.000
 RMSDP=6.78D-05 MaxDP=1.67D-03 DE=-6.78D-04 OVMax= 4.20D-03

 Cycle   5  Pass 0  IDiag  1:
 E= -155.020565758083     Delta-E=       -0.000358245535 Rises=F Damp=F
 DIIS: error= 3.30D-04 at cycle   5 NSaved=   5.
 NSaved= 5 IEnMin= 5 EnMin= -155.020565758083     IErMin= 5 ErrMin= 3.30D-04
 ErrMax= 3.30D-04  0.00D+00 EMaxC= 1.00D-01 BMatC= 7.07D-06 BMatP= 4.85D-04
 IDIUse=3 WtCom= 9.97D-01 WtEn= 3.30D-03
 Coeff-Com: -0.165D-02 0.161D-02 0.743D-01 0.172D+00 0.753D+00
 Coeff-En:   0.000D+00 0.000D+00 0.000D+00 0.000D+00 0.100D+01
 Coeff:     -0.164D-02 0.160D-02 0.741D-01 0.172D+00 0.754D+00
 Gap=     0.404 Goal=   None    Shift=    0.000
 RMSDP=9.83D-06 MaxDP=1.78D-04 DE=-3.58D-04 OVMax= 6.46D-04

 Initial convergence to 1.0D-05 achieved.  Increase integral accuracy.
 Cycle   6  Pass 1  IDiag  1:
 E= -155.020568250922     Delta-E=       -0.000002492839 Rises=F Damp=F
 DIIS: error= 3.09D-05 at cycle   1 NSaved=   1.
 NSaved= 1 IEnMin= 1 EnMin= -155.020568250922     IErMin= 1 ErrMin= 3.09D-05
 ErrMax= 3.09D-05  0.00D+00 EMaxC= 1.00D-01 BMatC= 3.01D-07 BMatP= 3.01D-07
 IDIUse=1 WtCom= 1.00D+00 WtEn= 0.00D+00
 Coeff-Com:  0.100D+01
 Coeff:      0.100D+01
 Gap=     0.404 Goal=   None    Shift=    0.000
 RMSDP=9.83D-06 MaxDP=1.78D-04 DE=-2.49D-06 OVMax= 1.56D-04

 Cycle   7  Pass 1  IDiag  1:
 E= -155.020568446346     Delta-E=       -0.000000195424 Rises=F Damp=F
 DIIS: error= 2.07D-05 at cycle   2 NSaved=   2.
 NSaved= 2 IEnMin= 2 EnMin= -155.020568446346     IErMin= 2 ErrMin= 2.07D-05
 ErrMax= 2.07D-05  0.00D+00 EMaxC= 1.00D-01 BMatC= 7.22D-08 BMatP= 3.01D-07
 IDIUse=1 WtCom= 1.00D+00 WtEn= 0.00D+00
 Coeff-Com:  0.276D+00 0.724D+00
 Coeff:      0.276D+00 0.724D+00
 Gap=     0.404 Goal=   None    Shift=    0.000
 RMSDP=1.16D-06 MaxDP=3.81D-05 DE=-1.95D-07 OVMax= 7.82D-05

 Cycle   8  Pass 1  IDiag  1:
 E= -155.020568500583     Delta-E=       -0.000000054237 Rises=F Damp=F
 DIIS: error= 8.51D-06 at cycle   3 NSaved=   3.
 NSaved= 3 IEnMin= 3 EnMin= -155.020568500583     IErMin= 3 ErrMin= 8.51D-06
 ErrMax= 8.51D-06  0.00D+00 EMaxC= 1.00D-01 BMatC= 1.10D-08 BMatP= 7.22D-08
 IDIUse=1 WtCom= 1.00D+00 WtEn= 0.00D+00
 Coeff-Com: -0.197D-01 0.256D+00 0.763D+00
 Coeff:     -0.197D-01 0.256D+00 0.763D+00
 Gap=     0.404 Goal=   None    Shift=    0.000
 RMSDP=4.17D-07 MaxDP=1.08D-05 DE=-5.42D-08 OVMax= 2.19D-05

 Cycle   9  Pass 1  IDiag  1:
 E= -155.020568509503     Delta-E=       -0.000000008919 Rises=F Damp=F
 DIIS: error= 1.57D-06 at cycle   4 NSaved=   4.
 NSaved= 4 IEnMin= 4 EnMin= -155.020568509503     IErMin= 4 ErrMin= 1.57D-06
 ErrMax= 1.57D-06  0.00D+00 EMaxC= 1.00D-01 BMatC= 6.00D-10 BMatP= 1.10D-08
 IDIUse=1 WtCom= 1.00D+00 WtEn= 0.00D+00
 Coeff-Com: -0.203D-01 0.587D-01 0.276D+00 0.685D+00
 Coeff:     -0.203D-01 0.587D-01 0.276D+00 0.685D+00
 Gap=     0.404 Goal=   None    Shift=    0.000
 RMSDP=9.06D-08 MaxDP=2.14D-06 DE=-8.92D-09 OVMax= 7.66D-06

 Cycle  10  Pass 1  IDiag  1:
 E= -155.020568509976     Delta-E=       -0.000000000473 Rises=F Damp=F
 DIIS: error= 4.39D-07 at cycle   5 NSaved=   5.
 NSaved= 5 IEnMin= 5 EnMin= -155.020568509976     IErMin= 5 ErrMin= 4.39D-07
 ErrMax= 4.39D-07  0.00D+00 EMaxC= 1.00D-01 BMatC= 6.15D-11 BMatP= 6.00D-10
 IDIUse=1 WtCom= 1.00D+00 WtEn= 0.00D+00
 Coeff-Com: -0.537D-02-0.660D-03 0.316D-01 0.247D+00 0.727D+00
 Coeff:     -0.537D-02-0.660D-03 0.316D-01 0.247D+00 0.727D+00
 Gap=     0.404 Goal=   None    Shift=    0.000
 RMSDP=5.00D-08 MaxDP=1.32D-06 DE=-4.73D-10 OVMax= 2.54D-06

 Cycle  11  Pass 1  IDiag  1:
 E= -155.020568510021     Delta-E=       -0.000000000045 Rises=F Damp=F
 DIIS: error= 2.14D-07 at cycle   6 NSaved=   6.
 NSaved= 6 IEnMin= 6 EnMin= -155.020568510021     IErMin= 6 ErrMin= 2.14D-07
 ErrMax= 2.14D-07  0.00D+00 EMaxC= 1.00D-01 BMatC= 7.57D-12 BMatP= 6.15D-11
 IDIUse=1 WtCom= 1.00D+00 WtEn= 0.00D+00
 Coeff-Com:  0.156D-02-0.110D-01-0.380D-01-0.271D-01 0.270D+00 0.805D+00
 Coeff:      0.156D-02-0.110D-01-0.380D-01-0.271D-01 0.270D+00 0.805D+00
 Gap=     0.404 Goal=   None    Shift=    0.000
 RMSDP=1.56D-08 MaxDP=3.83D-07 DE=-4.52D-11 OVMax= 1.31D-06

 Cycle  12  Pass 1  IDiag  1:
 E= -155.020568510031     Delta-E=       -0.000000000010 Rises=F Damp=F
 DIIS: error= 1.54D-08 at cycle   7 NSaved=   7.
 NSaved= 7 IEnMin= 7 EnMin= -155.020568510031     IErMin= 7 ErrMin= 1.54D-08
 ErrMax= 1.54D-08  0.00D+00 EMaxC= 1.00D-01 BMatC= 2.85D-14 BMatP= 7.57D-12
 IDIUse=1 WtCom= 1.00D+00 WtEn= 0.00D+00
 Coeff-Com: -0.695D-04 0.119D-02 0.378D-02-0.219D-02-0.435D-01-0.833D-01
 Coeff-Com:  0.112D+01
 Coeff:     -0.695D-04 0.119D-02 0.378D-02-0.219D-02-0.435D-01-0.833D-01
 Coeff:      0.112D+01
 Gap=     0.404 Goal=   None    Shift=    0.000
 RMSDP=2.30D-09 MaxDP=6.62D-08 DE=-9.83D-12 OVMax= 1.85D-07

 SCF Done:  E(RM062X) =  -155.020568510     A.U. after   12 cycles
            NFock= 12  Conv=0.23D-08     -V/T= 2.0061
 KE= 1.540853401726D+02 PE=-5.267734543579D+02 EE= 1.353626457845D+02
 Leave Link  502 at Thu May 23 01:50:49 2019, MaxMem=   671088640 cpu:             154.0 elap:               9.8
 (Enter /shared/centos7/gaussian/g16/l801.exe)
 DoSCS=F DFT=T ScalE2(SS,OS)=  1.000000  1.000000
 Range of M.O.s used for correlation:     1   174
 NBasis=   174 NAE=    13 NBE=    13 NFC=     0 NFV=     0
 NROrb=    174 NOA=    13 NOB=    13 NVA=   161 NVB=   161

 **** Warning!!: The largest alpha MO coefficient is  0.10727300D+02

 Leave Link  801 at Thu May 23 01:50:49 2019, MaxMem=   671088640 cpu:               1.1 elap:               0.4
 (Enter /shared/centos7/gaussian/g16/l1101.exe)
 Using compressed storage, NAtomX=     9.
 Will process     10 centers per pass.
 Leave Link 1101 at Thu May 23 01:50:49 2019, MaxMem=   671088640 cpu:               6.8 elap:               0.4
 (Enter /shared/centos7/gaussian/g16/l1102.exe)
 Symmetrizing basis deriv contribution to polar:
 IMax=3 JMax=2 DiffMx= 0.00D+00
 Leave Link 1102 at Thu May 23 01:50:49 2019, MaxMem=   671088640 cpu:               0.8 elap:               0.1
 (Enter /shared/centos7/gaussian/g16/l1110.exe)
 Forming Gx(P) for the SCF density, NAtomX=     9.
 Integral derivatives from FoFJK, PRISM(SPDF).
 Do as many integral derivatives as possible in FoFJK.
 G2DrvN: MDV=     671087856.
 G2DrvN: will do    10 centers at a time, making    1 passes.
 Calling FoFCou, ICntrl=  3107 FMM=F I1Cent=   0 AccDes= 0.00D+00.
 FoFJK:  IHMeth= 1 ICntrl=    3107 DoSepK=F KAlg= 0 I1Cent=           0 FoldK=F
 IRaf=         0 NMat=       1 IRICut=       1 DoRegI=T DoRafI=F ISym2E= 0 IDoP0=0 IntGTp=1.
 FoFCou: FMM=F IPFlag=           0 FMFlag=      100000 FMFlg1=           0
         NFxFlg=           0 DoJE=F BraDBF=F KetDBF=F FulRan=T
         wScrn=  0.000000 ICntrl=      3107 IOpCl=  0 I1Cent=           0 NGrid=           0
         NMat0=    1 NMatS0=      1 NMatT0=    0 NMatD0=    1 NMtDS0=    0 NMtDT0=    0
 Symmetry not used in FoFCou.
 End of G2Drv F.D. properties file   721 does not exist.
 End of G2Drv F.D. properties file   722 does not exist.
 End of G2Drv F.D. properties file   788 does not exist.
 Leave Link 1110 at Thu May 23 01:51:11 2019, MaxMem=   671088640 cpu:             427.9 elap:              21.4
 (Enter /shared/centos7/gaussian/g16/l1002.exe)
 Minotr:  Closed shell wavefunction.
          IDoAtm=111111111
          Direct CPHF calculation.
          Differentiating once with respect to nuclear coordinates.
          Requested convergence is 1.0D-08 RMS, and 1.0D-07 maximum.
          Secondary convergence is 1.0D-12 RMS, and 1.0D-12 maximum.
          NewPWx=T KeepS1=F KeepF1=F KeepIn=T MapXYZ=F SortEE=F KeepMc=T.
         2669 words used for storage of precomputed grid.
 Keep R1 ints in memory in canonical form, NReq=136278967.
 FoFCou: FMM=F IPFlag=           0 FMFlag=           0 FMFlg1=           0
         NFxFlg=           0 DoJE=F BraDBF=F KetDBF=F FulRan=T
         wScrn=  0.000000 ICntrl=       600 IOpCl=  0 I1Cent=           0 NGrid=           0
         NMat0=    1 NMatS0=  15225 NMatT0=    0 NMatD0=    1 NMtDS0=    0 NMtDT0=    0
 Symmetry not used in FoFCou.
 Two-electron integral symmetry not used.
          MDV=     671088640 using IRadAn=       1.
          Solving linear equations simultaneously, MaxMat=       0.
          There are    30 degrees of freedom in the 1st order CPHF.  IDoFFX=6 NUNeed=     0.
     24 vectors produced by pass  0 Test12= 6.98D-15 3.33D-09 XBig12= 5.26D-02 6.88D-02.
 AX will form    24 AO Fock derivatives at one time.
     24 vectors produced by pass  1 Test12= 6.98D-15 3.33D-09 XBig12= 8.30D-03 2.28D-02.
     24 vectors produced by pass  2 Test12= 6.98D-15 3.33D-09 XBig12= 2.08D-04 2.34D-03.
     24 vectors produced by pass  3 Test12= 6.98D-15 3.33D-09 XBig12= 2.66D-06 2.35D-04.
     24 vectors produced by pass  4 Test12= 6.98D-15 3.33D-09 XBig12= 1.85D-08 2.77D-05.
     24 vectors produced by pass  5 Test12= 6.98D-15 3.33D-09 XBig12= 9.11D-11 1.71D-06.
      9 vectors produced by pass  6 Test12= 6.98D-15 3.33D-09 XBig12= 3.11D-13 1.12D-07.
      1 vectors produced by pass  7 Test12= 6.98D-15 3.33D-09 XBig12= 1.07D-15 4.62D-09.
 InvSVY:  IOpt=1 It=  1 EMax= 1.33D-15
 Solved reduced A of dimension   154 with    24 vectors.
 End of Minotr F.D. properties file   721 does not exist.
 End of Minotr F.D. properties file   722 does not exist.
 End of Minotr F.D. properties file   788 does not exist.
 Leave Link 1002 at Thu May 23 01:51:35 2019, MaxMem=   671088640 cpu:             474.5 elap:              24.0
 (Enter /shared/centos7/gaussian/g16/l601.exe)
 Copying SCF densities to generalized density rwf, IOpCl= 0 IROHF=0.

 **********************************************************************

            Population analysis using the SCF density.

 **********************************************************************

 Orbital symmetries:
       Occupied  (A) (A) (A) (A) (A) (A) (A) (A) (A) (A) (A) (A)
                 (A)
       Virtual   (A) (A) (A) (A) (A) (A) (A) (A) (A) (A) (A) (A)
                 (A) (A) (A) (A) (A) (A) (A) (A) (A) (A) (A) (A)
                 (A) (A) (A) (A) (A) (A) (A) (A) (A) (A) (A) (A)
                 (A) (A) (A) (A) (A) (A) (A) (A) (A) (A) (A) (A)
                 (A) (A) (A) (A) (A) (A) (A) (A) (A) (A) (A) (A)
                 (A) (A) (A) (A) (A) (A) (A) (A) (A) (A) (A) (A)
                 (A) (A) (A) (A) (A) (A) (A) (A) (A) (A) (A) (A)
                 (A) (A) (A) (A) (A) (A) (A) (A) (A) (A) (A) (A)
                 (A) (A) (A) (A) (A) (A) (A) (A) (A) (A) (A) (A)
                 (A) (A) (A) (A) (A) (A) (A) (A) (A) (A) (A) (A)
                 (A) (A) (A) (A) (A) (A) (A) (A) (A) (A) (A) (A)
                 (A) (A) (A) (A) (A) (A) (A) (A) (A) (A) (A) (A)
                 (A) (A) (A) (A) (A) (A) (A) (A) (A) (A) (A) (A)
                 (A) (A) (A) (A) (A)
 The electronic state is 1-A.
 Alpha  occ. eigenvalues --  -19.61708 -10.58219 -10.53906  -1.15053  -0.84264
 Alpha  occ. eigenvalues --   -0.71395  -0.55727  -0.54180  -0.52709  -0.44350
 Alpha  occ. eigenvalues --   -0.44037  -0.39371  -0.33863
 Alpha virt. eigenvalues --    0.06541   0.09513   0.11529   0.12184   0.14371
 Alpha virt. eigenvalues --    0.16517   0.21033   0.24684   0.28632   0.30790
 Alpha virt. eigenvalues --    0.33920   0.37438   0.40937   0.43997   0.45594
 Alpha virt. eigenvalues --    0.47436   0.49133   0.49972   0.51279   0.52262
 Alpha virt. eigenvalues --    0.57650   0.58507   0.60575   0.66251   0.69110
 Alpha virt. eigenvalues --    0.71733   0.77140   0.79633   0.84449   0.88358
 Alpha virt. eigenvalues --    0.91599   1.01141   1.02395   1.05893   1.07024
 Alpha virt. eigenvalues --    1.09443   1.10878   1.12373   1.15150   1.18340
 Alpha virt. eigenvalues --    1.20217   1.21458   1.23846   1.29552   1.30789
 Alpha virt. eigenvalues --    1.31503   1.36303   1.38122   1.40415   1.45575
 Alpha virt. eigenvalues --    1.50575   1.53014   1.56835   1.64363   1.88308
 Alpha virt. eigenvalues --    1.96994   2.02891   2.08221   2.16635   2.21544
 Alpha virt. eigenvalues --    2.28541   2.31337   2.40821   2.43166   2.45312
 Alpha virt. eigenvalues --    2.52459   2.59644   2.61440   2.64818   2.70884
 Alpha virt. eigenvalues --    2.80008   2.81080   2.83577   2.86505   2.91651
 Alpha virt. eigenvalues --    2.94437   2.95946   2.97314   2.99830   3.04448
 Alpha virt. eigenvalues --    3.06537   3.07662   3.10304   3.18581   3.19601
 Alpha virt. eigenvalues --    3.20691   3.26612   3.28777   3.32468   3.37035
 Alpha virt. eigenvalues --    3.38090   3.38754   3.41375   3.44304   3.46513
 Alpha virt. eigenvalues --    3.52026   3.55728   3.59052   3.64408   3.69723
 Alpha virt. eigenvalues --    3.71640   3.73743   3.75567   3.78787   3.81107
 Alpha virt. eigenvalues --    3.83361   3.87131   3.89891   3.92349   3.95606
 Alpha virt. eigenvalues --    3.98759   3.99272   4.00556   4.04759   4.07911
 Alpha virt. eigenvalues --    4.13591   4.16364   4.19146   4.20803   4.25041
 Alpha virt. eigenvalues --    4.27771   4.34668   4.44757   4.46696   4.56085
 Alpha virt. eigenvalues --    4.61276   4.68557   4.71511   4.75318   4.76363
 Alpha virt. eigenvalues --    4.82973   4.87674   4.89583   4.98812   5.03220
 Alpha virt. eigenvalues --    5.11622   5.17332   5.21023   5.22857   5.26467
 Alpha virt. eigenvalues --    5.32352   5.34634   5.43769   5.64359   5.69915
 Alpha virt. eigenvalues --    5.75133   5.77942   5.82390   6.03337   6.19796
 Alpha virt. eigenvalues --    6.45794   6.60288   6.64583   6.74831   6.90473
 Alpha virt. eigenvalues --    7.01681   7.16308   7.33352  11.52733  12.14634
 Alpha virt. eigenvalues --   13.13678
          Condensed to atoms (all electrons):
               1          2          3          4          5          6
     1  O    7.839728   0.364252  -0.062145  -0.055614  -0.056335   0.002826
     2  C    0.364252   4.638940   0.348829   0.382528   0.383520  -0.036568
     3  C   -0.062145   0.348829   4.981191  -0.038636  -0.038123   0.402262
     4  H   -0.055614   0.382528  -0.038636   0.752753  -0.099038  -0.018519
     5  H   -0.056335   0.383520  -0.038123  -0.099038   0.747737   0.010749
     6  H    0.002826  -0.036568   0.402262  -0.018519   0.010749   0.595769
     7  H    0.005282  -0.030548   0.382160  -0.001004  -0.003549  -0.028387
     8  H   -0.000040  -0.036748   0.386209   0.012787  -0.013781  -0.048013
     9  H    0.345919  -0.056386  -0.008565   0.004289   0.006178   0.001334
               7          8          9
     1  O    0.005282  -0.000040   0.345919
     2  C   -0.030548  -0.036748  -0.056386
     3  C    0.382160   0.386209  -0.008565
     4  H   -0.001004   0.012787   0.004289
     5  H   -0.003549  -0.013781   0.006178
     6  H   -0.028387  -0.048013   0.001334
     7  H    0.593871  -0.030167   0.000654
     8  H   -0.030167   0.635516   0.004109
     9  H    0.000654   0.004109   0.451051
 Mulliken charges:
               1
     1  O   -0.383873
     2  C    0.042183
     3  C   -0.353182
     4  H    0.060454
     5  H    0.062640
     6  H    0.118547
     7  H    0.111686
     8  H    0.090127
     9  H    0.251419
 Sum of Mulliken charges =  -0.00000
 Mulliken charges with hydrogens summed into heavy atoms:
               1
     1  O   -0.132454
     2  C    0.165277
     3  C   -0.032823
 APT charges:
               1
     1  O   -0.474850
     2  C   -0.494935
     3  C   -0.961691
     4  H    0.281231
     5  H    0.285315
     6  H    0.321537
     7  H    0.358757
     8  H    0.272203
     9  H    0.412434
 Sum of APT charges =  -0.00000
 APT charges with hydrogens summed into heavy atoms:
               1
     1  O   -0.062416
     2  C    0.071611
     3  C   -0.009195
 Electronic spatial extent (au):  <R**2>=            191.9066
 Charge=             -0.0000 electrons
 Dipole moment (field-independent basis, Debye):
    X=             -1.6508    Y=             -0.6892    Z=              0.0206  Tot=              1.7891
 Quadrupole moment (field-independent basis, Debye-Ang):
   XX=            -23.1652   YY=            -17.6364   ZZ=            -20.2464
   XY=             -0.8954   XZ=              0.0577   YZ=             -0.0330
 Traceless Quadrupole moment (field-independent basis, Debye-Ang):
   XX=             -2.8159   YY=              2.7129   ZZ=              0.1030
   XY=             -0.8954   XZ=              0.0577   YZ=             -0.0330
 Octapole moment (field-independent basis, Debye-Ang**2):
  XXX=             -0.1576  YYY=             -4.7705  ZZZ=              0.5343  XYY=              4.1346
  XXY=             -0.2381  XXZ=             -0.2087  XZZ=              1.1081  YZZ=             -0.2841
  YYZ=             -0.3304  XYZ=              0.1425
 Hexadecapole moment (field-independent basis, Debye-Ang**3):
 XXXX=           -161.2625 YYYY=            -56.6883 ZZZZ=            -34.6029 XXXY=             -4.8986
 XXXZ=              0.8334 YYYX=             -5.6942 YYYZ=              0.3835 ZZZX=             -0.7787
 ZZZY=             -0.2838 XXYY=            -33.2947 XXZZ=            -32.2530 YYZZ=            -14.8300
 XXYZ=             -0.6692 YYXZ=              0.4630 ZZXY=              0.1409
 N-N= 8.230489989075D+01 E-N=-5.267734554743D+02  KE= 1.540853401726D+02
  Exact polarizability:   0.000   0.000   0.000   0.000   0.000   0.000
 Approx polarizability:  33.592  -0.470  36.782   0.002   0.224  32.606
 No NMR shielding tensors so no spin-rotation constants.
 Leave Link  601 at Thu May 23 01:51:35 2019, MaxMem=   671088640 cpu:               4.6 elap:               0.3
 (Enter /shared/centos7/gaussian/g16/l701.exe)
 SCFChk:  SCF convergence  2.30D-09 required  1.00D-08
 ... and contract with generalized density number  0.
 Compute integral second derivatives.
 Entering OneElI...
 Calculate overlap and kinetic energy integrals
    NBasis = 195  MinDer = 2  MaxDer = 2
 Requested accuracy = 0.1000D-12
 PrmmSu-InSpLW:  IPartL=    0 NPrtUS=   20 NPrtUL=    1 DoSpLW=F IThBeg=    0 IThEnd=   19 NThAct=   20.
 PrsmSu:  NPrtUS=  20 ThrOK=T IAlg=1 NPAlg=1 LenDen=           0 ISkipM=0 DoSpLW=F IThBeg=    0 IThEnd=   19.
 Prism:   IPart=     0 DynPar=F LinDyn=F Incr=           1.
 PRISM was handed    33489407 working-precision words and  2211 shell-pairs
 PRISM was handed    33489407 working-precision words and  2211 shell-pairs
 PRISM was handed    33489407 working-precision words and  2211 shell-pairs
 PRISM was handed    33489407 working-precision words and  2211 shell-pairs
 PRISM was handed    33489407 working-precision words and  2211 shell-pairs
 PRISM was handed    33489407 working-precision words and  2211 shell-pairs
 PRISM was handed    33489407 working-precision words and  2211 shell-pairs
 PRISM was handed    33489407 working-precision words and  2211 shell-pairs
 PRISM was handed    33489407 working-precision words and  2211 shell-pairs
 PRISM was handed    33489407 working-precision words and  2211 shell-pairs
 PRISM was handed    33489407 working-precision words and  2211 shell-pairs
 PRISM was handed    33489407 working-precision words and  2211 shell-pairs
 PRISM was handed    33489407 working-precision words and  2211 shell-pairs
 PRISM was handed    33489407 working-precision words and  2211 shell-pairs
 PRISM was handed    33489407 working-precision words and  2211 shell-pairs
 PRISM was handed    33489407 working-precision words and  2211 shell-pairs
 PRISM was handed    33489407 working-precision words and  2211 shell-pairs
 PRISM was handed    33489407 working-precision words and  2211 shell-pairs
 PRISM was handed    33489407 working-precision words and  2211 shell-pairs
 PRISM was handed    33489407 working-precision words and  2211 shell-pairs
 IPart= 17 NShTot=          92 NBatch=          21 AvBLen=         4.4
 IPart= 11 NShTot=         104 NBatch=          21 AvBLen=         5.0
 IPart= 13 NShTot=         104 NBatch=          21 AvBLen=         5.0
 IPart= 15 NShTot=         100 NBatch=          21 AvBLen=         4.8
 IPart=  0 NShTot=         148 NBatch=          58 AvBLen=         2.6
 IPart=  2 NShTot=         132 NBatch=          44 AvBLen=         3.0
 IPart=  1 NShTot=         134 NBatch=          45 AvBLen=         3.0
 IPart= 10 NShTot=         107 NBatch=          21 AvBLen=         5.1
 IPart=  3 NShTot=         125 NBatch=          37 AvBLen=         3.4
 IPart= 16 NShTot=          92 NBatch=          21 AvBLen=         4.4
 IPart=  5 NShTot=         119 NBatch=          32 AvBLen=         3.7
 IPart=  4 NShTot=         121 NBatch=          34 AvBLen=         3.6
 IPart= 14 NShTot=         101 NBatch=          21 AvBLen=         4.8
 IPart=  7 NShTot=         113 NBatch=          26 AvBLen=         4.3
 IPart= 12 NShTot=         104 NBatch=          21 AvBLen=         5.0
 IPart=  6 NShTot=         117 NBatch=          30 AvBLen=         3.9
 IPart= 19 NShTot=          90 NBatch=          20 AvBLen=         4.5
 IPart=  8 NShTot=         111 NBatch=          25 AvBLen=         4.4
 IPart=  9 NShTot=         107 NBatch=          21 AvBLen=         5.1
 IPart= 18 NShTot=          90 NBatch=          20 AvBLen=         4.5
 PrSmSu:  NxtVal=             21.
 Entering OneElI...
 Calculate potential energy integrals
    NBasis = 195  MinDer = 2  MaxDer = 2
 Requested accuracy = 0.1000D-12
 PrmmSu-InSpLW:  IPartL=    0 NPrtUS=   20 NPrtUL=    1 DoSpLW=F IThBeg=    0 IThEnd=   19 NThAct=   20.
 PrsmSu:  NPrtUS=  20 ThrOK=T IAlg=1 NPAlg=1 LenDen=           0 ISkipM=0 DoSpLW=F IThBeg=    0 IThEnd=   19.
 Prism:   IPart=     0 DynPar=F LinDyn=F Incr=           9.
 PRISM was handed    33495221 working-precision words and  2202 shell-pairs
 PRISM was handed    33495221 working-precision words and  2202 shell-pairs
 PRISM was handed    33495221 working-precision words and  2202 shell-pairs
 PRISM was handed    33495221 working-precision words and  2202 shell-pairs
 PRISM was handed    33495221 working-precision words and  2202 shell-pairs
 PRISM was handed    33495221 working-precision words and  2202 shell-pairs
 PRISM was handed    33495221 working-precision words and  2202 shell-pairs
 PRISM was handed    33495221 working-precision words and  2202 shell-pairs
 PRISM was handed    33495221 working-precision words and  2202 shell-pairs
 PRISM was handed    33495221 working-precision words and  2202 shell-pairs
 PRISM was handed    33495221 working-precision words and  2202 shell-pairs
 PRISM was handed    33495221 working-precision words and  2202 shell-pairs
 PRISM was handed    33495221 working-precision words and  2202 shell-pairs
 PRISM was handed    33495221 working-precision words and  2202 shell-pairs
 PRISM was handed    33495221 working-precision words and  2202 shell-pairs
 PRISM was handed    33495221 working-precision words and  2202 shell-pairs
 PRISM was handed    33495221 working-precision words and  2202 shell-pairs
 PRISM was handed    33495221 working-precision words and  2202 shell-pairs
 PRISM was handed    33495221 working-precision words and  2202 shell-pairs
 PRISM was handed    33495221 working-precision words and  2202 shell-pairs
 IPart=  3 NShTot=        1098 NBatch=         122 AvBLen=         9.0
 IPart=  2 NShTot=        1179 NBatch=         131 AvBLen=         9.0
 IPart=  1 NShTot=        1215 NBatch=         135 AvBLen=         9.0
 IPart= 15 NShTot=         864 NBatch=          96 AvBLen=         9.0
 IPart= 17 NShTot=         828 NBatch=          92 AvBLen=         9.0
 IPart= 13 NShTot=         900 NBatch=         100 AvBLen=         9.0
 IPart= 16 NShTot=         837 NBatch=          93 AvBLen=         9.0
 IPart= 11 NShTot=         954 NBatch=         106 AvBLen=         9.0
 IPart=  5 NShTot=        1071 NBatch=         119 AvBLen=         9.0
 IPart= 10 NShTot=         972 NBatch=         108 AvBLen=         9.0
 IPart=  4 NShTot=        1089 NBatch=         121 AvBLen=         9.0
 IPart=  0 NShTot=        1341 NBatch=         149 AvBLen=         9.0
 IPart=  8 NShTot=         999 NBatch=         111 AvBLen=         9.0
 IPart=  9 NShTot=         972 NBatch=         108 AvBLen=         9.0
 IPart= 12 NShTot=         927 NBatch=         103 AvBLen=         9.0
 IPart= 19 NShTot=         810 NBatch=          90 AvBLen=         9.0
 IPart= 18 NShTot=         810 NBatch=          90 AvBLen=         9.0
 IPart= 14 NShTot=         873 NBatch=          97 AvBLen=         9.0
 IPart=  7 NShTot=        1017 NBatch=         113 AvBLen=         9.0
 IPart=  6 NShTot=        1062 NBatch=         118 AvBLen=         9.0
 PrSmSu:  NxtVal=            181.
 Polarizability after L701:
                1             2             3 
      1  0.000000D+00
      2  0.000000D+00  0.000000D+00
      3  0.000000D+00  0.000000D+00  0.000000D+00
 Dipole Derivatives after L701:
                 1             2             3             4             5 
      1   0.946278D-02  0.468952D+00  0.180559D-02 -0.319230D+00  0.114579D+00
      2  -0.203209D+00 -0.104588D+01  0.841810D-02  0.354711D-01 -0.559259D+00
      3   0.106058D-01  0.136492D-01 -0.388132D+00  0.167598D-01 -0.133025D-01
                 6             7             8             9            10 
      1   0.144358D-02 -0.108558D+01 -0.118803D+00  0.315299D-01  0.122255D+00
      2   0.577990D-02  0.868079D-01 -0.822070D+00  0.712911D-02  0.441502D-02
      3  -0.606316D+00 -0.232775D-01 -0.321132D-02 -0.977429D+00  0.538718D-01
                11            12            13            14            15 
      1  -0.540988D-02  0.631266D-01  0.134038D+00 -0.112854D-01 -0.693473D-01
      2   0.339143D+00  0.250199D+00  0.819936D-03  0.351059D+00 -0.242334D+00
      3   0.144852D+00  0.382294D+00 -0.636941D-01 -0.158587D+00  0.370850D+00
                16            17            18            19            20 
      1   0.225120D+00  0.190992D+00 -0.441362D+00  0.709485D+00 -0.455076D+00
      2   0.731359D-01  0.201545D+00 -0.204413D+00 -0.165737D+00  0.232453D+00
      3  -0.818454D-01 -0.131492D+00  0.537945D+00  0.101393D+00 -0.841348D-01
                21            22            23            24            25 
      1   0.223921D+00  0.865939D-01  0.310100D+00  0.193684D+00  0.117851D+00
      2  -0.660548D-01  0.574659D-02  0.437151D+00  0.246633D+00  0.162550D+00
      3   0.134332D+00 -0.798624D-02  0.241146D+00  0.292865D+00 -0.582710D-02
                26            27 
      1  -0.494049D+00 -0.480171D-02
      2   0.865859D+00 -0.535731D-02
      3  -0.891905D-02  0.253591D+00
 Hessian after L701:
                1             2             3             4             5 
      1  0.534284D+01
      2  0.223007D+01  0.536328D+01
      3  0.235490D-01  0.499309D-01  0.119310D+02
      4 -0.148587D+01 -0.381606D+01 -0.132253D-01  0.859742D+01
      5 -0.391574D+01 -0.406785D+01 -0.322355D-01  0.222329D+01  0.119571D+02
      6 -0.170438D-01 -0.264989D-01 -0.738460D+01  0.337064D-01  0.311960D-01
      7  0.536550D+00  0.192141D+00  0.526089D-01 -0.120587D+01  0.169739D+01
      8  0.247505D-01 -0.306726D+00  0.331632D-01  0.170935D+01 -0.378055D+01
      9  0.500718D-01  0.198693D-01 -0.199822D+00  0.340586D-01  0.224638D-02
     10 -0.126758D+00  0.223518D+00 -0.653376D-01 -0.301115D+01 -0.406898D-01
     11  0.217562D+00 -0.103163D+00  0.208486D+00 -0.581643D-01 -0.205426D+01
     12 -0.554880D-01  0.143625D+00  0.407488D+00 -0.491594D-01  0.102098D+01
     13 -0.121388D+00  0.241252D+00  0.616333D-01 -0.301730D+01 -0.139270D-01
     14  0.233248D+00 -0.131972D+00 -0.204210D+00 -0.192048D-01 -0.207927D+01
     15  0.509817D-01 -0.132528D+00  0.415001D+00 -0.643049D-02 -0.100964D+01
     16  0.103061D+00  0.367356D-01 -0.366834D-01 -0.670167D-02 -0.236955D-01
     17  0.353159D-01 -0.427414D-01 -0.889160D-02  0.529428D-02  0.452078D-03
     18 -0.818160D-01 -0.276609D-01 -0.219026D-01 -0.240176D-01 -0.156786D-01
     19  0.130309D+00 -0.406790D-01  0.237988D-01  0.109198D-01  0.532197D-02
     20 -0.596452D-01 -0.339764D-01 -0.777964D-02 -0.211666D-01  0.351807D-01
     21  0.305651D-01 -0.570983D-02 -0.374359D-01  0.228281D-01 -0.885997D-02
     22  0.883169D-01  0.598163D-01 -0.268320D-01  0.135603D-01 -0.362370D-01
     23  0.912967D-01 -0.985632D-02  0.227291D-02  0.161670D-01  0.113028D-01
     24  0.189764D-01  0.247923D-01 -0.673875D-01  0.122331D-02  0.136576D-01
     25 -0.446706D+01  0.873206D+00 -0.195117D-01  0.104983D+00  0.104286D+00
     26  0.114314D+01 -0.666994D+00 -0.407354D-01 -0.395069D-01 -0.220780D-01
     27 -0.197962D-01 -0.458203D-01 -0.504233D+01  0.101636D-02 -0.166142D-02
                6             7             8             9            10 
      6  0.152860D+02
      7  0.213475D-01  0.786029D+01
      8 -0.514543D-02 -0.111660D+01  0.102361D+02
      9 -0.468068D+01 -0.728858D-01 -0.466841D-01  0.107617D+02
     10 -0.339350D-01  0.335583D-01 -0.345051D-01 -0.457045D-01  0.286732D+01
     11  0.110032D+01 -0.221594D-01 -0.377769D-01 -0.505703D-01 -0.133493D+00
     12 -0.166648D+01 -0.345944D-01 -0.436270D-01 -0.824682D-02  0.964470D-01
     13 -0.132742D-01 -0.305907D-01 -0.639118D-02  0.694313D-01  0.262312D+00
     14 -0.109252D+01 -0.961120D-02  0.833584D-01  0.294586D-01 -0.106412D-02
     15 -0.173958D+01  0.658132D-01  0.190256D-02 -0.831180D-02  0.100821D-01
     16  0.151528D-01 -0.272309D+01  0.166777D+00 -0.486185D+00 -0.868597D-02
     17 -0.915741D-02  0.134271D+00 -0.251724D+01 -0.663092D+00 -0.400072D-01
     18  0.721045D-01 -0.388186D+00 -0.631669D+00 -0.121705D+01  0.444737D-02
     19  0.154827D-01 -0.167424D+01 -0.835042D+00  0.385559D+00  0.691950D-02
     20 -0.114789D-01 -0.779112D+00 -0.216285D+01 -0.259829D+00  0.495872D-03
     21 -0.298519D-02  0.370062D+00 -0.267191D+00 -0.258707D+01  0.645587D-02
     22 -0.217388D-01 -0.279796D+01  0.461515D-01  0.666355D-01 -0.106616D-01
     23  0.165606D-01 -0.711930D-01 -0.148630D+01  0.970191D+00  0.399051D-01
     24  0.370646D-01 -0.155874D-01  0.959349D+00 -0.203683D+01  0.296075D-01
     25  0.302351D-03  0.134078D-02  0.455021D-01 -0.980962D-03 -0.128522D-01
     26 -0.326841D-02 -0.251264D-01 -0.279685D-01 -0.159027D-02 -0.141595D-01
     27  0.791184D-01  0.142237D-02 -0.982135D-04 -0.236413D-01 -0.206258D-02
               11            12            13            14            15 
     11  0.182008D+01
     12 -0.128930D+01  0.171725D+01
     13  0.104367D-04  0.211585D-02  0.292086D+01
     14  0.290458D+00  0.606153D-01 -0.195309D+00  0.179268D+01
     15 -0.592084D-01 -0.497037D+00 -0.865372D-01  0.128312D+01  0.177991D+01
     16 -0.485892D-01 -0.898447D-03  0.131062D-02  0.416683D-01 -0.436434D-01
     17 -0.255277D-01  0.511411D-03  0.292467D-01  0.232488D-01 -0.474657D-01
     18  0.319101D-02  0.270442D-01 -0.381754D-01 -0.555368D-01  0.337813D-01
     19  0.770448D-02  0.104141D-01 -0.343916D-02  0.393369D-02 -0.523543D-02
     20 -0.467778D-02 -0.165318D-02 -0.639060D-02 -0.259202D-02  0.219719D-02
     21  0.455180D-02  0.310038D-02  0.128584D-02  0.000000D+00  0.898173D-03
     22  0.483073D-01  0.370337D-01  0.330249D-02 -0.374473D-01  0.662677D-02
     23  0.624906D-01  0.675083D-01 -0.305551D-01 -0.376390D-01  0.842674D-02
     24  0.625071D-01  0.200532D-01  0.428607D-03  0.358896D-02  0.202328D-01
     25 -0.111778D-01 -0.587041D-02 -0.150751D-01 -0.162139D-01  0.834273D-02
     26  0.523809D-01  0.413446D-01 -0.179368D-01  0.617243D-01 -0.468045D-01
     27  0.200293D-01 -0.318060D-02  0.309178D-02 -0.245140D-01 -0.489129D-02
               16            17            18            19            20 
     16  0.248177D+01
     17 -0.212712D+00  0.248059D+01
     18  0.564498D+00  0.710627D+00  0.134498D+01
     19  0.509528D-01  0.384439D-01 -0.606790D-01  0.145084D+01
     20  0.355262D-01 -0.113538D-01  0.847956D-01  0.750877D+00  0.226077D+01
     21 -0.660079D-01  0.991177D-01 -0.493523D-01 -0.405440D+00  0.227711D+00
     22  0.951504D-01  0.122852D-01  0.291844D-01  0.218745D-01  0.853122D-01
     23  0.203529D-01  0.100453D+00 -0.835997D-01  0.907343D-01 -0.872244D-01
     24  0.588460D-01 -0.812026D-01 -0.185692D+00  0.339600D-01 -0.328653D-01
     25  0.622854D-02 -0.213805D-02 -0.525573D-02  0.585946D-02 -0.589648D-02
     26 -0.160641D-01 -0.788215D-02  0.155305D-01 -0.212944D-01  0.672642D-02
     27 -0.507870D-02 -0.447015D-03 -0.391612D-02  0.213949D-02 -0.109832D-02
               21            22            23            24            25 
     21  0.261373D+01
     22  0.394964D-01  0.256447D+01
     23 -0.461128D-01 -0.159168D+00  0.147390D+01
     24  0.633566D-01 -0.139685D+00 -0.937332D+00  0.216307D+01
     25  0.754656D-03  0.219430D-01  0.246024D-02  0.122304D-01  0.435463D+01
     26 -0.350673D-02 -0.190200D-01 -0.271303D-01 -0.124946D-01 -0.990028D+00
     27 -0.423892D-02  0.927885D-02  0.208515D-02 -0.138589D-01  0.998865D-02
               26            27 
     26  0.631221D+00
     27  0.515248D-01  0.501694D+01
 Leave Link  701 at Thu May 23 01:51:35 2019, MaxMem=   671088640 cpu:               5.8 elap:               0.3
 (Enter /shared/centos7/gaussian/g16/l702.exe)
 L702 exits ... SP integral derivatives will be done elsewhere.
 Leave Link  702 at Thu May 23 01:51:36 2019, MaxMem=   671088640 cpu:               1.2 elap:               0.1
 (Enter /shared/centos7/gaussian/g16/l703.exe)
 Integral derivatives from FoFJK, PRISM(SPDF).
 Compute integral second derivatives, UseDBF=F ICtDFT=           0.
 ICntrl=    100147.
 Calling FoFJK, ICntrl=    100147 FMM=F ISym2X=0 I1Cent= 0 IOpClX= 0 NMat=1 NMatS=1 NMatT=0.
 FoFJK:  IHMeth= 1 ICntrl=  100147 DoSepK=F KAlg= 0 I1Cent=           0 FoldK=F
 IRaf=         0 NMat=       1 IRICut=       1 DoRegI=T DoRafI=F ISym2E= 0 IDoP0=0 IntGTp=1.
 FoFCou: FMM=F IPFlag=           0 FMFlag=      100000 FMFlg1=         800
         NFxFlg=           0 DoJE=F BraDBF=F KetDBF=F FulRan=T
         wScrn=  0.000000 ICntrl=    100147 IOpCl=  0 I1Cent=           0 NGrid=           0
         NMat0=    1 NMatS0=      1 NMatT0=    0 NMatD0=    1 NMtDS0=    0 NMtDT0=    0
 Symmetry not used in FoFCou.
 FoFCou:  KetSym=F NOpSet=  1 NOpAb=1 NOp=  1.
 FoFCou:  CnvScl= 1.00D+00 Thresh= 1.00D-08 IAcrcy=      12.
 PrismS was handed   670887065 working-precision words and  2209 shell-pairs
 FoFCou: LinMIO=F DoNuc=F BraDBF=F KetDBF=F HaveP=T PDBF=F HaveZ=T HaveW=F
         NIJTC =      10 NIJTAt=       0 NIJTCD=       0 NIJTT =      10
         IJTBeg=       1 IJTEnd=      10 KLTBeg=       1 KLTEnd=      10
         IPTBeg=       1 IPTEnd=      10 IPTBCv=       1 IPTECv=      10
         IZTBeg=       1 IZTEnd=      10 IZTBCv=       1 IZTECv=      10
         IWTBeg=      11 IWTEnd=      10 IWTBCv=      11 IWTECv=      10
         INTBeg=       1 INTEnd=       0 IFTBCv=       1 IFTECv=      10
 NCel replicated for PrismC:     1
 CoulSu-InSpLW:  IPartL=    0 NPrtUS=   20 NPrtUL=    1 DoSpLW=F IThBeg=    0 IThEnd=   19 NThAct=   20.
 CoulSu:  IncDef=  1024 NBBP=        2440945 NTPThr=   100 NPartT=   20 Incr=        1024 LDynOK=F GPUOK=T.
 CoulSu:  NPrtUS=  20 ThrOK=T IAlg=1 NPAlg=1 LenDen=           0 LWGrdD=           0 DoCopy=F ISkipM=0
          DoSpLW=F IThBeg=    0 IThEnd=   19.
 Enter PrismC:  IPart=  0 JobTyp=22 DoJE=F Cont=F.
 PrismC:  IPart=     0 DynPar=T LinDyn=F Incr=        1024 UseFst=F UseS4=T ISplat=2.
 PrismC was handed    33496686 working-precision words and  2209 shell-pairs
 Enter PrismC:  IPart=  9 JobTyp=22 DoJE=F Cont=F.
 Enter PrismC:  IPart=  2 JobTyp=22 DoJE=F Cont=F.
 PrismC:  IPart=     9 DynPar=T LinDyn=F Incr=        1024 UseFst=F UseS4=T ISplat=2.
 PrismC was handed    33496686 working-precision words and  2209 shell-pairs
 Enter PrismC:  IPart= 13 JobTyp=22 DoJE=F Cont=F.
 Enter PrismC:  IPart=  8 JobTyp=22 DoJE=F Cont=F.
 PrismC:  IPart=     2 DynPar=T LinDyn=F Incr=        1024 UseFst=F UseS4=T ISplat=2.
 PrismC was handed    33496686 working-precision words and  2209 shell-pairs
 PrismC:  IPart=    13 DynPar=T LinDyn=F Incr=        1024 UseFst=F UseS4=T ISplat=2.
 PrismC was handed    33496686 working-precision words and  2209 shell-pairs
 Enter PrismC:  IPart= 19 JobTyp=22 DoJE=F Cont=F.
 PrismC:  IPart=     8 DynPar=T LinDyn=F Incr=        1024 UseFst=F UseS4=T ISplat=2.
 PrismC was handed    33496686 working-precision words and  2209 shell-pairs
 PrismC:  IPart=    19 DynPar=T LinDyn=F Incr=        1024 UseFst=F UseS4=T ISplat=2.
 PrismC was handed    33496686 working-precision words and  2209 shell-pairs
 Enter PrismC:  IPart=  1 JobTyp=22 DoJE=F Cont=F.
 Enter PrismC:  IPart=  4 JobTyp=22 DoJE=F Cont=F.
 PrismC:  IPart=     1 DynPar=T LinDyn=F Incr=        1024 UseFst=F UseS4=T ISplat=2.
 PrismC was handed    33496686 working-precision words and  2209 shell-pairs
 Enter PrismC:  IPart=  7 JobTyp=22 DoJE=F Cont=F.
 PrismC:  IPart=     4 DynPar=T LinDyn=F Incr=        1024 UseFst=F UseS4=T ISplat=2.
 PrismC was handed    33496686 working-precision words and  2209 shell-pairs
 PrismC:  IPart=     7 DynPar=T LinDyn=F Incr=        1024 UseFst=F UseS4=T ISplat=2.
 Enter PrismC:  IPart= 14 JobTyp=22 DoJE=F Cont=F.
 PrismC was handed    33496686 working-precision words and  2209 shell-pairs
 PrismC:  IPart=    14 DynPar=T LinDyn=F Incr=        1024 UseFst=F UseS4=T ISplat=2.
 PrismC was handed    33496686 working-precision words and  2209 shell-pairs
 Enter PrismC:  IPart= 12 JobTyp=22 DoJE=F Cont=F.
 Enter PrismC:  IPart= 10 JobTyp=22 DoJE=F Cont=F.
 Enter PrismC:  IPart= 16 JobTyp=22 DoJE=F Cont=F.
 Enter PrismC:  IPart=  5 JobTyp=22 DoJE=F Cont=F.
 Enter PrismC:  IPart= 17 JobTyp=22 DoJE=F Cont=F.
 Enter PrismC:  IPart= 15 JobTyp=22 DoJE=F Cont=F.
 PrismC:  IPart=    12 DynPar=T LinDyn=F Incr=        1024 UseFst=F UseS4=T ISplat=2.
 PrismC was handed    33496686 working-precision words and  2209 shell-pairs
 PrismC:  IPart=    10 DynPar=T LinDyn=F Incr=        1024 UseFst=F UseS4=T ISplat=2.
 PrismC was handed    33496686 working-precision words and  2209 shell-pairs
 PrismC:  IPart=     5 DynPar=T LinDyn=F Incr=        1024 UseFst=F UseS4=T ISplat=2.
 PrismC was handed    33496686 working-precision words and  2209 shell-pairs
 Enter PrismC:  IPart=  6 JobTyp=22 DoJE=F Cont=F.
 Enter PrismC:  IPart= 11 JobTyp=22 DoJE=F Cont=F.
 Enter PrismC:  IPart= 18 JobTyp=22 DoJE=F Cont=F.
 PrismC:  IPart=    17 DynPar=T LinDyn=F Incr=        1024 UseFst=F UseS4=T ISplat=2.
 PrismC:  IPart=    18 DynPar=T LinDyn=F Incr=        1024 UseFst=F UseS4=T ISplat=2.
 PrismC was handed    33496686 working-precision words and  2209 shell-pairs
 PrismC:  IPart=     6 DynPar=T LinDyn=F Incr=        1024 UseFst=F UseS4=T ISplat=2.
 PrismC was handed    33496686 working-precision words and  2209 shell-pairs
 PrismC was handed    33496686 working-precision words and  2209 shell-pairs
 Enter PrismC:  IPart=  3 JobTyp=22 DoJE=F Cont=F.
 PrismC:  IPart=    11 DynPar=T LinDyn=F Incr=        1024 UseFst=F UseS4=T ISplat=2.
 PrismC was handed    33496686 working-precision words and  2209 shell-pairs
 PrismC:  IPart=     3 DynPar=T LinDyn=F Incr=        1024 UseFst=F UseS4=T ISplat=2.
 PrismC was handed    33496686 working-precision words and  2209 shell-pairs
 PrismC:  IPart=    16 DynPar=T LinDyn=F Incr=        1024 UseFst=F UseS4=T ISplat=2.
 PrismC was handed    33496686 working-precision words and  2209 shell-pairs
 PrismC:  IPart=    15 DynPar=T LinDyn=F Incr=        1024 UseFst=F UseS4=T ISplat=2.
 PrismC was handed    33496686 working-precision words and  2209 shell-pairs
 IPart= 10 NShTot=      104109 NShNF=      104109 NShFF=           0 MinMC=       7
           NShCPU=      104109 NBCPU=        3688 AvBCPU=        28.2
           NShGPU=           0 NBGPU=           0 AvBGPU=         0.0
 IPart=  6 NShTot=      126783 NShNF=      126783 NShFF=           0 MinMC=       7
           NShCPU=      126783 NBCPU=        5381 AvBCPU=        23.6
           NShGPU=           0 NBGPU=           0 AvBGPU=         0.0
 IPart=  9 NShTot=       97666 NShNF=       97666 NShFF=           0 MinMC=       7
           NShCPU=       97666 NBCPU=        4797 AvBCPU=        20.4
           NShGPU=           0 NBGPU=           0 AvBGPU=         0.0
 IPart=  7 NShTot=      112531 NShNF=      112531 NShFF=           0 MinMC=       7
           NShCPU=      112531 NBCPU=        4940 AvBCPU=        22.8
           NShGPU=           0 NBGPU=           0 AvBGPU=         0.0
 IPart=  2 NShTot=      133547 NShNF=      133547 NShFF=           0 MinMC=       7
           NShCPU=      133547 NBCPU=        5418 AvBCPU=        24.6
           NShGPU=           0 NBGPU=           0 AvBGPU=         0.0
 IPart=  3 NShTot=      131081 NShNF=      131081 NShFF=           0 MinMC=       7
           NShCPU=      131081 NBCPU=        5155 AvBCPU=        25.4
           NShGPU=           0 NBGPU=           0 AvBGPU=         0.0
 IPart= 15 NShTot=      133292 NShNF=      133292 NShFF=           0 MinMC=       7
           NShCPU=      133292 NBCPU=        5300 AvBCPU=        25.1
           NShGPU=           0 NBGPU=           0 AvBGPU=         0.0
 IPart=  5 NShTot=      131759 NShNF=      131759 NShFF=           0 MinMC=       7
           NShCPU=      131759 NBCPU=        5501 AvBCPU=        24.0
           NShGPU=           0 NBGPU=           0 AvBGPU=         0.0
 IPart= 12 NShTot=       72055 NShNF=       72055 NShFF=           0 MinMC=       7
           NShCPU=       72055 NBCPU=        2372 AvBCPU=        30.4
           NShGPU=           0 NBGPU=           0 AvBGPU=         0.0
 IPart= 13 NShTot=       64060 NShNF=       64060 NShFF=           0 MinMC=       7
           NShCPU=       64060 NBCPU=        2601 AvBCPU=        24.6
           NShGPU=           0 NBGPU=           0 AvBGPU=         0.0
 IPart= 14 NShTot=       76314 NShNF=       76314 NShFF=           0 MinMC=       7
           NShCPU=       76314 NBCPU=        2910 AvBCPU=        26.2
           NShGPU=           0 NBGPU=           0 AvBGPU=         0.0
 IPart= 16 NShTot=      118764 NShNF=      118764 NShFF=           0 MinMC=       7
           NShCPU=      118764 NBCPU=        5039 AvBCPU=        23.6
           NShGPU=           0 NBGPU=           0 AvBGPU=         0.0
 IPart=  0 NShTot=       67302 NShNF=       67302 NShFF=           0 MinMC=       7
           NShCPU=       67302 NBCPU=        2693 AvBCPU=        25.0
           NShGPU=           0 NBGPU=           0 AvBGPU=         0.0
 IPart=  8 NShTot=      127070 NShNF=      127070 NShFF=           0 MinMC=       7
           NShCPU=      127070 NBCPU=        5275 AvBCPU=        24.1
           NShGPU=           0 NBGPU=           0 AvBGPU=         0.0
 IPart= 19 NShTot=      123058 NShNF=      123058 NShFF=           0 MinMC=       7
           NShCPU=      123058 NBCPU=        5206 AvBCPU=        23.6
           NShGPU=           0 NBGPU=           0 AvBGPU=         0.0
 IPart= 17 NShTot=       71401 NShNF=       71401 NShFF=           0 MinMC=       7
           NShCPU=       71401 NBCPU=        2741 AvBCPU=        26.0
           NShGPU=           0 NBGPU=           0 AvBGPU=         0.0
 IPart=  1 NShTot=       66396 NShNF=       66396 NShFF=           0 MinMC=       7
           NShCPU=       66396 NBCPU=        2947 AvBCPU=        22.5
           NShGPU=           0 NBGPU=           0 AvBGPU=         0.0
 IPart= 18 NShTot=      110993 NShNF=      110993 NShFF=           0 MinMC=       7
           NShCPU=      110993 NBCPU=        5022 AvBCPU=        22.1
           NShGPU=           0 NBGPU=           0 AvBGPU=         0.0
 IPart=  4 NShTot=      136126 NShNF=      136126 NShFF=           0 MinMC=       7
           NShCPU=      136126 NBCPU=        5459 AvBCPU=        24.9
           NShGPU=           0 NBGPU=           0 AvBGPU=         0.0
 IPart= 11 NShTot=       67250 NShNF=       67250 NShFF=           0 MinMC=       7
           NShCPU=       67250 NBCPU=        2946 AvBCPU=        22.8
           NShGPU=           0 NBGPU=           0 AvBGPU=         0.0
 CoulSu:  NxtVal=        2627585 LenVP=       33496687 MinMC=       7.
 ReadGW:  IGet=0 IStart=           1 Next=           1 LGW=           0.
 Remaining memory in FofDFT      639.96 Mw
 CkSvGd:  ISavGI=        -1 IRadAn=       5 IRASav=       5 ISavGd=        -1.
 CalDSu-InSpLW:  IPartL=    0 NPrtUS=   20 NPrtUL=    1 DoSpLW=F IThBeg=    0 IThEnd=   19 NThAct=   20.
 CalDSu:  NPrtUS=  20 ThrOK=T IAlg=1 NPAlg=2 DoDPD=T LenP=       19110 LenD1P=             0 GPUOK=F
          ISkipM=0 DoSpLW=F IThBeg=    0 IThEnd=   19.
 IPart=  0 IRanGd=          0 ScrnBf=T ScrnGd=T RCrit=4.00D+00 DoMicB=T.
 IPart= 16         9479 of        10472 points in      11 batches and       57 microbatches, Max-NSigAt=       9 Max-NSgAt2=       9
 IPart= 13         5824 of         6532 points in       7 batches and       47 microbatches, Max-NSigAt=       9 Max-NSgAt2=       9
 IPart=  4         6961 of         7726 points in       9 batches and       61 microbatches, Max-NSigAt=       9 Max-NSgAt2=       9
 IPart=  1         6308 of         6890 points in       6 batches and       51 microbatches, Max-NSigAt=       9 Max-NSgAt2=       9
 IPart=  7        11292 of        13540 points in      15 batches and      124 microbatches, Max-NSigAt=       9 Max-NSgAt2=       9
 IPart=  5        13521 of        15750 points in      18 batches and       76 microbatches, Max-NSigAt=       9 Max-NSgAt2=       9
 IPart=  9        10659 of        11658 points in      10 batches and       41 microbatches, Max-NSigAt=       9 Max-NSgAt2=       9
 IPart=  6        10327 of        11406 points in      11 batches and       81 microbatches, Max-NSigAt=       9 Max-NSgAt2=       9
 IPart= 12         9870 of        10444 points in      10 batches and       59 microbatches, Max-NSigAt=       9 Max-NSgAt2=       9
 IPart= 15        11063 of        11778 points in      10 batches and       48 microbatches, Max-NSigAt=       9 Max-NSgAt2=       9
 IPart=  3        10342 of        10992 points in      10 batches and       57 microbatches, Max-NSigAt=       9 Max-NSgAt2=       9
 IPart=  8        10219 of        10866 points in       8 batches and       56 microbatches, Max-NSigAt=       9 Max-NSgAt2=       9
 IPart= 14         8468 of         8864 points in       8 batches and       37 microbatches, Max-NSigAt=       9 Max-NSgAt2=       9
 IPart= 10         8580 of         8920 points in       7 batches and       35 microbatches, Max-NSigAt=       9 Max-NSgAt2=       9
 IPart=  0         6791 of         7614 points in       8 batches and       42 microbatches, Max-NSigAt=       9 Max-NSgAt2=       9
 IPart= 18        10231 of        10774 points in       9 batches and       56 microbatches, Max-NSigAt=       9 Max-NSgAt2=       9
 IPart= 17         6952 of         7360 points in       6 batches and       33 microbatches, Max-NSigAt=       9 Max-NSgAt2=       9
 IPart= 11         6738 of         7304 points in       7 batches and       41 microbatches, Max-NSigAt=       9 Max-NSgAt2=       9
 IPart= 19        12793 of        13788 points in      10 batches and       40 microbatches, Max-NSigAt=       9 Max-NSgAt2=       9
 IPart=  2         6918 of         7494 points in       8 batches and       42 microbatches, Max-NSigAt=       9 Max-NSgAt2=       9
 Polarizability after L703:
                1             2             3 
      1  0.000000D+00
      2  0.000000D+00  0.000000D+00
      3  0.000000D+00  0.000000D+00  0.000000D+00
 Dipole Derivatives after L703:
                 1             2             3             4             5 
      1   0.946278D-02  0.468952D+00  0.180559D-02 -0.319230D+00  0.114579D+00
      2  -0.203209D+00 -0.104588D+01  0.841810D-02  0.354711D-01 -0.559259D+00
      3   0.106058D-01  0.136492D-01 -0.388132D+00  0.167598D-01 -0.133025D-01
                 6             7             8             9            10 
      1   0.144358D-02 -0.108558D+01 -0.118803D+00  0.315299D-01  0.122255D+00
      2   0.577990D-02  0.868079D-01 -0.822070D+00  0.712911D-02  0.441502D-02
      3  -0.606316D+00 -0.232775D-01 -0.321132D-02 -0.977429D+00  0.538718D-01
                11            12            13            14            15 
      1  -0.540988D-02  0.631266D-01  0.134038D+00 -0.112854D-01 -0.693473D-01
      2   0.339143D+00  0.250199D+00  0.819936D-03  0.351059D+00 -0.242334D+00
      3   0.144852D+00  0.382294D+00 -0.636941D-01 -0.158587D+00  0.370850D+00
                16            17            18            19            20 
      1   0.225120D+00  0.190992D+00 -0.441362D+00  0.709485D+00 -0.455076D+00
      2   0.731359D-01  0.201545D+00 -0.204413D+00 -0.165737D+00  0.232453D+00
      3  -0.818454D-01 -0.131492D+00  0.537945D+00  0.101393D+00 -0.841348D-01
                21            22            23            24            25 
      1   0.223921D+00  0.865939D-01  0.310100D+00  0.193684D+00  0.117851D+00
      2  -0.660548D-01  0.574659D-02  0.437151D+00  0.246633D+00  0.162550D+00
      3   0.134332D+00 -0.798624D-02  0.241146D+00  0.292865D+00 -0.582710D-02
                26            27 
      1  -0.494049D+00 -0.480171D-02
      2   0.865859D+00 -0.535731D-02
      3  -0.891905D-02  0.253591D+00
 Hessian after L703:
                1             2             3             4             5 
      1  0.395491D+00
      2 -0.388524D-01  0.618275D+00
      3 -0.498125D-03 -0.681715D-02  0.338333D-01
      4 -0.240181D+00  0.142845D+00  0.812311D-03  0.529563D+00
      5  0.840615D-01 -0.177207D+00  0.145705D-02 -0.343636D-01  0.586217D+00
      6 -0.105029D-02  0.229946D-02 -0.538886D-01 -0.340423D-02 -0.104058D-01
      7 -0.430354D-01 -0.738258D-02 -0.156965D-02 -0.164056D+00 -0.521834D-01
      8  0.317796D-01  0.588320D-02 -0.190664D-02 -0.708995D-01 -0.124966D+00
      9 -0.321473D-02 -0.159155D-02  0.977323D-03  0.224719D-02  0.476771D-02
     10 -0.835355D-02  0.299881D-01  0.207314D-01 -0.529738D-01 -0.114797D-01
     11  0.125709D-01 -0.215604D-01 -0.153299D-01 -0.857799D-02 -0.116556D+00
     12  0.682669D-02 -0.357031D-02  0.101627D-01 -0.111739D-01 -0.935649D-01
     13 -0.745312D-02  0.303854D-01 -0.206370D-01 -0.522918D-01 -0.133993D-01
     14  0.126403D-01 -0.220535D-01  0.154083D-01 -0.113041D-01 -0.123419D+00
     15 -0.644127D-02  0.345039D-02  0.101264D-01  0.118016D-01  0.991985D-01
     16  0.167891D-02 -0.613938D-05 -0.149293D-02 -0.555327D-02 -0.124006D-01
     17  0.276629D-03  0.113596D-02 -0.408063D-03 -0.366288D-02 -0.104421D-01
     18  0.117513D-02 -0.132712D-02  0.659687D-03 -0.178242D-02 -0.135074D-03
     19 -0.741221D-02 -0.205284D-02 -0.491496D-03 -0.161900D-01  0.213604D-01
     20 -0.476074D-02 -0.469419D-04 -0.482188D-04 -0.113892D-01  0.118297D-01
     21  0.174480D-02 -0.384319D-04  0.177019D-02  0.147370D-02 -0.571899D-03
     22  0.434274D-02 -0.128279D-02  0.140294D-03 -0.111093D-02 -0.221209D-01
     23  0.179965D-02  0.314500D-02  0.197155D-02  0.300244D-02 -0.156223D-01
     24 -0.435980D-03  0.181594D-02  0.356613D-03 -0.309102D-03 -0.610038D-03
     25 -0.950777D-01 -0.153642D+00  0.300526D-02  0.279334D-02  0.405256D-01
     26 -0.995154D-01 -0.407570D+00  0.567308D-02 -0.565000D-02 -0.298335D-01
     27  0.189378D-02  0.577878D-02 -0.399768D-02  0.334815D-03 -0.135463D-03
                6             7             8             9            10 
      6  0.538109D+00
      7  0.303391D-02  0.520479D+00
      8  0.120290D-02 -0.399098D-01  0.525223D+00
      9 -0.798037D-01  0.503261D-02 -0.153094D-01  0.528357D+00
     10 -0.125255D-01 -0.107452D-02 -0.187711D-01 -0.223850D-01  0.657028D-01
     11 -0.866752D-01 -0.428033D-02 -0.101878D-01 -0.146724D-01 -0.199992D-04
     12 -0.196270D+00  0.354370D-03  0.154031D-02  0.492174D-03  0.736549D-02
     13  0.134102D-01 -0.407559D-02 -0.154555D-01  0.245740D-01  0.253384D-02
     14  0.936749D-01 -0.310382D-02 -0.862212D-02  0.150483D-01  0.650645D-03
     15 -0.200671D+00  0.542183D-03 -0.128946D-02  0.134028D-02  0.338287D-02
     16  0.278014D-01 -0.590690D-01 -0.138542D-01  0.398417D-01  0.143189D-02
     17  0.172043D-01 -0.139025D-01 -0.779893D-01  0.735777D-01  0.703646D-03
     18  0.727786D-03  0.405033D-01  0.765061D-01 -0.249870D+00  0.241315D-03
     19 -0.650986D-02 -0.197216D+00  0.113725D+00 -0.547377D-01  0.221262D-03
     20 -0.426214D-02  0.116761D+00 -0.138299D+00  0.421741D-01  0.854425D-03
     21 -0.171117D-02 -0.558957D-01  0.425431D-01 -0.659774D-01  0.369817D-04
     22 -0.195966D-01 -0.518029D-01  0.924831D-02  0.736922D-02 -0.475675D-02
     23 -0.129597D-01  0.724398D-02 -0.176971D+00 -0.103671D+00 -0.306805D-02
     24 -0.605321D-03  0.796402D-02 -0.104217D+00 -0.139389D+00 -0.290232D-03
     25 -0.115903D-02 -0.150366D-03  0.413714D-02  0.127270D-02 -0.273123D-02
     26 -0.787174D-04 -0.324295D-02  0.592885D-02 -0.323384D-03  0.114204D-02
     27 -0.588774D-02  0.349967D-04  0.929675D-03  0.387346D-02  0.344271D-02
               11            12            13            14            15 
     11  0.139026D+00
     12  0.106338D+00  0.207343D+00
     13  0.536078D-03 -0.313376D-02  0.668413D-01
     14  0.111168D-01 -0.136387D-01  0.437138D-03  0.143787D+00
     15  0.138153D-01 -0.237900D-01 -0.100626D-01 -0.113156D+00  0.211382D+00
     16  0.947899D-03 -0.173284D-03 -0.429195D-02 -0.272939D-02 -0.180232D-03
     17  0.335867D-03  0.112394D-03 -0.406997D-02 -0.993813D-03 -0.394981D-03
     18 -0.180721D-04  0.166067D-02 -0.311832D-03 -0.391169D-03  0.178500D-02
     19 -0.819837D-03 -0.447704D-03  0.999842D-03  0.621934D-04  0.944490D-03
     20 -0.333297D-03 -0.456330D-03  0.314047D-03  0.103918D-02  0.150534D-03
     21 -0.110222D-03 -0.144981D-03  0.201886D-03 -0.206149D-03  0.392779D-03
     22 -0.266718D-02  0.682131D-04  0.609321D-03  0.724823D-03  0.272924D-03
     23 -0.859217D-03  0.122252D-02 -0.149667D-04 -0.354432D-04  0.253201D-03
     24 -0.204906D-03  0.144628D-02 -0.433387D-03  0.850637D-04  0.408305D-03
     25  0.231043D-02  0.313882D-03 -0.287182D-02  0.262219D-02 -0.260002D-03
     26 -0.981337D-03  0.201755D-02  0.126704D-02 -0.818418D-03 -0.202714D-02
     27 -0.314206D-02 -0.900073D-03 -0.360747D-02  0.317580D-02 -0.973883D-03
               16            17            18            19            20 
     16  0.618516D-01
     17  0.206207D-01  0.848147D-01
     18 -0.448240D-01 -0.840196D-01  0.270725D+00
     19  0.541766D-02 -0.443996D-02  0.142493D-02  0.214771D+00
     20  0.724963D-02 -0.658742D-02  0.204070D-02 -0.125621D+00  0.146313D+00
     21 -0.230177D-01  0.169410D-01 -0.749768D-02  0.591884D-01 -0.471226D-01
     22 -0.155185D-02  0.443942D-02  0.289012D-02 -0.491553D-03  0.173751D-01
     23 -0.735785D-03  0.942492D-02  0.682860D-02 -0.506583D-04 -0.135847D-01
     24  0.176525D-02 -0.225197D-01 -0.172662D-01  0.358271D-03  0.754577D-02
     25  0.859971D-04  0.348533D-04  0.683461D-03 -0.100640D-03 -0.783583D-03
     26  0.907884D-03  0.301126D-03  0.515652D-03 -0.216342D-02 -0.330113D-03
     27  0.279773D-03 -0.493029D-03 -0.924226D-03  0.270640D-03 -0.218056D-04
               21            22            23            24            25 
     21  0.680631D-01
     22  0.164923D-01  0.552359D-01
     23 -0.116050D-01 -0.727078D-02  0.193646D+00
     24  0.584020D-02 -0.683822D-02  0.118608D+00  0.149669D+00
     25 -0.224613D-03 -0.473931D-03 -0.905828D-03 -0.178062D-02  0.985264D-01
     26  0.170207D-03  0.155404D-02  0.856743D-03 -0.503614D-03  0.105701D+00
     27 -0.735073D-03 -0.798200D-03 -0.648273D-03 -0.460003D-03 -0.185105D-02
               26            27 
     26  0.432447D+00
     27 -0.544363D-02  0.100052D-01
 Leave Link  703 at Thu May 23 01:52:09 2019, MaxMem=   671088640 cpu:             661.9 elap:              33.1
 (Enter /shared/centos7/gaussian/g16/l716.exe)
 FrcOut:
 IF    =       349 IFX   =       382 IFXYZ =       409
 IFFX  =       436 IFFFX =       814 IFLen =        33
 IFFLen=       378 IFFFLn=         0 IEDerv=       814
 LEDerv=      1349 IFroze=      2503 ICStrt=     63511
 Dipole        =-6.49492930D-01-2.71156878D-01 8.10503289D-03
 DipoleDeriv   = 9.46278223D-03-2.03208751D-01 1.06057617D-02
                 4.68951636D-01-1.04588038D+00 1.36491612D-02
                 1.80558561D-03 8.41809751D-03-3.88132490D-01
                -3.19230052D-01 3.54711385D-02 1.67598161D-02
                 1.14578819D-01-5.59259105D-01-1.33025243D-02
                 1.44358250D-03 5.77989663D-03-6.06316072D-01
                -1.08557503D+00 8.68078524D-02-2.32774583D-02
                -1.18803141D-01-8.22070141D-01-3.21131691D-03
                 3.15298661D-02 7.12910613D-03-9.77428722D-01
                 1.22254656D-01 4.41501775D-03 5.38717924D-02
                -5.40987829D-03 3.39143111D-01 1.44852178D-01
                 6.31265742D-02 2.50198661D-01 3.82293838D-01
                 1.34038083D-01 8.19935752D-04-6.36941199D-02
                -1.12853902D-02 3.51058505D-01-1.58587265D-01
                -6.93473222D-02-2.42333539D-01 3.70849745D-01
                 2.25120022D-01 7.31359025D-02-8.18453736D-02
                 1.90992495D-01 2.01544629D-01-1.31492163D-01
                -4.41361526D-01-2.04413212D-01 5.37945133D-01
                 7.09484606D-01-1.65737465D-01 1.01392929D-01
                -4.55076297D-01 2.32453301D-01-8.41348167D-02
                 2.23920587D-01-6.60548332D-02 1.34332038D-01
                 8.65938926D-02 5.74659292D-03-7.98624392D-03
                 3.10100308D-01 4.37150816D-01 2.41145796D-01
                 1.93684359D-01 2.46633134D-01 2.92865169D-01
                 1.17851043D-01 1.62549776D-01-5.82710366D-03
                -4.94048552D-01 8.65859270D-01-8.91904994D-03
                -4.80170530D-03-5.35731076D-03 2.53591362D-01
 Polarizability= 0.00000000D+00 0.00000000D+00 0.00000000D+00
                 0.00000000D+00 0.00000000D+00 0.00000000D+00
 Quadrupole    =-2.09356374D+00 2.01700271D+00 7.65610323D-02
                -6.65720827D-01 4.29095932D-02-2.45274281D-02
 Forces in standard orientation:
 -------------------------------------------------------------------
 Center     Atomic                   Forces (Hartrees/Bohr)
 Number     Number              X              Y              Z
 -------------------------------------------------------------------
      1        8          -0.013195569    0.038683404   -0.001720183
      2        6           0.020723318   -0.031994181   -0.001090193
      3        6           0.006409138    0.011176469   -0.000685202
      4        1           0.000245193    0.007624981    0.011484892
      5        1           0.000142321    0.007533653   -0.007744037
      6        1          -0.002128745   -0.002018698    0.009368227
      7        1          -0.003076814    0.003189414   -0.001877077
      8        1           0.000110602   -0.013232097   -0.007814669
      9        1          -0.009229443   -0.020962944    0.000078242
 -------------------------------------------------------------------
 Cartesian Forces:  Max     0.038683404 RMS     0.012883245
 ***** Axes restored to original set *****
 Rotating derivatives, DoTrsp=F IDiff=-2 LEDeriv=   1348 LFDPrp=       0 LDFDPr=       0.
 -------------------------------------------------------------------
 Center     Atomic                   Forces (Hartrees/Bohr)
 Number     Number              X              Y              Z
 -------------------------------------------------------------------
      1        8           0.008862527    0.039401816   -0.006514621
      2        6          -0.017415252   -0.033499049    0.005366078
      3        6          -0.007361557    0.010586144    0.000448373
      4        1           0.001851542    0.008282572    0.010866186
      5        1          -0.002683507    0.007004464   -0.007777055
      6        1           0.004499992   -0.001262806    0.008632831
      7        1           0.002233485    0.003293767   -0.002706513
      8        1          -0.000805864   -0.013661455   -0.006991775
      9        1           0.010818634   -0.020145453   -0.001323504
 -------------------------------------------------------------------
 Cartesian Forces:  Max     0.039401816 RMS     0.012883245
 Force constants in Cartesian coordinates: 
[...]
     24 -0.387761D-02 -0.897471D-03  0.252159D-02  0.201961D-02  0.599212D-03
     25 -0.239250D-02 -0.373687D-02  0.640207D-02 -0.512465D-02  0.585794D-02
     26  0.250925D-02  0.582549D-04 -0.230794D-02  0.633613D-02 -0.146885D-03
     27 -0.621923D-02  0.378927D-02  0.300279D-02  0.903883D-03 -0.645996D-02
     28  0.152279D-02 -0.686918D-02  0.581153D-02 -0.549900D-02  0.473567D-02
     29  0.642454D-02 -0.307405D-02 -0.289847D-02  0.596178D-02 -0.126916D-02
     30 -0.230394D-02  0.656963D-03  0.241226D-02  0.529536D-03 -0.758224D-02
     31 -0.178044D-02 -0.101128D-02  0.218356D-02 -0.635983D-02  0.725649D-02
     32  0.312131D-02  0.278385D-02 -0.652645D-02  0.510095D-02  0.125166D-02
     33 -0.560717D-02  0.651486D-02 -0.121572D-02 -0.331298D-03 -0.506142D-02
               21            22            23            24            25 
     21  0.490641D-01
     22  0.245201D-02  0.159881D-01
     23 -0.160871D-02 -0.682721D-02  0.221884D-01
     24 -0.299814D-03 -0.674888D-02 -0.129138D-01  0.217838D-01
     25 -0.100163D-02 -0.434389D-02  0.252777D-02  0.174405D-02  0.167620D-01
     26 -0.643634D-02 -0.245586D-02  0.188476D-02  0.114529D-02  0.632052D-02
     27  0.486037D-02 -0.427272D-02  0.275410D-02  0.185249D-02  0.686029D-02
     28  0.319838D-03  0.126374D-02 -0.107936D-02 -0.709568D-03  0.290579D-02
     29 -0.511487D-02  0.315176D-02 -0.172237D-02 -0.130833D-02 -0.753573D-02
     30  0.618185D-02  0.133490D-02 -0.853034D-03 -0.601131D-03 -0.699596D-02
     31 -0.230477D-03  0.866629D-03 -0.883509D-03 -0.361737D-03  0.217021D-02
     32 -0.566519D-02  0.275466D-02 -0.152652D-02 -0.960502D-03 -0.827131D-02
     33  0.563153D-02  0.937796D-03 -0.657186D-03 -0.253301D-03 -0.773154D-02
               26            27            28            29            30 
     26  0.159548D-01
     27  0.638684D-02  0.169545D-01
     28 -0.748140D-02 -0.772372D-02  0.162479D-01
     29  0.215287D-02 -0.819717D-02  0.586071D-02  0.155493D-01
     30 -0.741509D-02  0.237051D-02  0.561839D-02  0.519926D-02  0.149849D-01
     31 -0.763801D-02 -0.714220D-02  0.281634D-02 -0.699188D-02 -0.649607D-02
     32  0.199626D-02 -0.761566D-02 -0.757086D-02  0.269672D-02 -0.691520D-02
     33 -0.757169D-02  0.295203D-02 -0.781317D-02 -0.765332D-02  0.287040D-02
               31            32            33 
     31  0.150902D-01
     32  0.528194D-02  0.155495D-01
     33  0.577775D-02  0.593760D-02  0.164613D-01
 Leave Link  716 at Thu May 23 01:55:05 2019, MaxMem=   671088640 cpu:               0.6 elap:               0.0
 (Enter /shared/centos7/gaussian/g16/l103.exe)

 GradGradGradGradGradGradGradGradGradGradGradGradGradGradGradGradGradGrad
 Berny optimization.
 Red2BG is reusing G-inverse.
 Internal  Forces:  Max     0.000012656 RMS     0.000004204
 Search for a local minimum.
 Step number   1 out of a maximum of    2
 All quantities printed in internal units (Hartrees-Bohrs-Radians)
 Second derivative matrix not updated -- analytic derivatives used.
 ITU=  0
     Eigenvalues ---    0.00229   0.00284   0.04350   0.04360   0.04967
     Eigenvalues ---    0.05958   0.10134   0.12020   0.12211   0.12866
     Eigenvalues ---    0.16090   0.17091   0.24549   0.30351   0.32455
     Eigenvalues ---    0.33804   0.34089   0.34438   0.34959   0.39877
     Eigenvalues ---    0.54265
 Angle between quadratic step and forces=  74.99 degrees.
 Linear search not attempted -- first point.
 Iteration  1 RMS(Cart)=  0.00008725 RMS(Int)=  0.00000000
 Iteration  2 RMS(Cart)=  0.00000000 RMS(Int)=  0.00000000
 ITry= 1 IFail=0 DXMaxC= 1.92D-04 DCOld= 1.00D+10 DXMaxT= 3.00D-01 DXLimC= 3.00D+00 Rises=F
 Variable       Old X    -DE/DX   Delta X   Delta X   Delta X     New X
                                 (Linear)    (Quad)   (Total)
    R1        2.67609  -0.00001   0.00000  -0.00003  -0.00003   2.67605
    R2        1.81427  -0.00001   0.00000  -0.00001  -0.00001   1.81426
    R3        2.86656  -0.00001   0.00000  -0.00003  -0.00003   2.86653
    R4        2.06928   0.00000   0.00000   0.00001   0.00001   2.06930
    R5        2.05855   0.00001   0.00000   0.00002   0.00002   2.05857
    R6        2.06322  -0.00000   0.00000  -0.00000  -0.00000   2.06322
    R7        2.06012   0.00000   0.00000  -0.00000  -0.00000   2.06012
    R8        2.05817   0.00001   0.00000   0.00003   0.00003   2.05821
    A1        1.89213   0.00000   0.00000   0.00003   0.00003   1.89216
    A2        1.96068   0.00000   0.00000   0.00002   0.00002   1.96070
    A3        1.93275   0.00000   0.00000   0.00001   0.00001   1.93276
    A4        1.84318   0.00000   0.00000   0.00004   0.00004   1.84322
    A5        1.92546  -0.00000   0.00000  -0.00002  -0.00002   1.92544
    A6        1.92501  -0.00001   0.00000  -0.00005  -0.00005   1.92497
    A7        1.87320   0.00000   0.00000  -0.00001  -0.00001   1.87319
    A8        1.93197  -0.00000   0.00000   0.00000   0.00000   1.93197
    A9        1.93670  -0.00000   0.00000  -0.00003  -0.00003   1.93667
   A10        1.92397  -0.00000   0.00000  -0.00003  -0.00003   1.92394
   A11        1.88218   0.00000   0.00000   0.00001   0.00001   1.88219
   A12        1.88948   0.00000   0.00000   0.00002   0.00002   1.88950
   A13        1.89822   0.00000   0.00000   0.00003   0.00003   1.89826
    D1       -1.03448  -0.00000   0.00000  -0.00005  -0.00005  -1.03453
    D2        1.12714  -0.00000   0.00000  -0.00005  -0.00005   1.12709
    D3       -3.13366   0.00000   0.00000  -0.00003  -0.00003  -3.13369
    D4        1.10011   0.00000   0.00000   0.00017   0.00017   1.10028
    D5       -3.09391  -0.00000   0.00000   0.00016   0.00016  -3.09375
    D6       -0.98990  -0.00000   0.00000   0.00016   0.00016  -0.98974
    D7       -1.06557  -0.00000   0.00000   0.00015   0.00015  -1.06541
    D8        1.02360  -0.00000   0.00000   0.00015   0.00015   1.02374
    D9        3.12761  -0.00000   0.00000   0.00014   0.00014   3.12775
   D10       -3.13195   0.00000   0.00000   0.00021   0.00021  -3.13174
   D11       -1.04279   0.00000   0.00000   0.00020   0.00020  -1.04259
   D12        1.06122   0.00000   0.00000   0.00020   0.00020   1.06142
         Item               Value     Threshold  Converged?
 Maximum Force            0.000013     0.000450     YES
 RMS     Force            0.000004     0.000300     YES
 Maximum Displacement     0.000192     0.001800     YES
 RMS     Displacement     0.000087     0.001200     YES
 Predicted change in Energy=-1.682669D-09
 Optimization completed.
    -- Stationary point found.
                           ----------------------------
                           !   Optimized Parameters   !
                           ! (Angstroms and Degrees)  !
 --------------------------                            --------------------------
 ! Name  Definition              Value          Derivative Info.                !
 --------------------------------------------------------------------------------
 ! R1    R(1,2)                  1.4161         -DE/DX =    0.0                 !
 ! R2    R(1,9)                  0.9601         -DE/DX =    0.0                 !
 ! R3    R(2,3)                  1.5169         -DE/DX =    0.0                 !
 ! R4    R(2,4)                  1.095          -DE/DX =    0.0                 !
 ! R5    R(2,5)                  1.0893         -DE/DX =    0.0                 !
 ! R6    R(3,6)                  1.0918         -DE/DX =    0.0                 !
 ! R7    R(3,7)                  1.0902         -DE/DX =    0.0                 !
 ! R8    R(3,8)                  1.0891         -DE/DX =    0.0                 !
 ! A1    A(2,1,9)              108.411          -DE/DX =    0.0                 !
 ! A2    A(1,2,3)              112.3386         -DE/DX =    0.0                 !
 ! A3    A(1,2,4)              110.7384         -DE/DX =    0.0                 !
 ! A4    A(1,2,5)              105.6064         -DE/DX =    0.0                 !
 ! A5    A(3,2,4)              110.3207         -DE/DX =    0.0                 !
 ! A6    A(3,2,5)              110.2951         -DE/DX =    0.0                 !
 ! A7    A(4,2,5)              107.3263         -DE/DX =    0.0                 !
 ! A8    A(2,3,6)              110.6937         -DE/DX =    0.0                 !
 ! A9    A(2,3,7)              110.965          -DE/DX =    0.0                 !
 ! A10   A(2,3,8)              110.2352         -DE/DX =    0.0                 !
 ! A11   A(6,3,7)              107.841          -DE/DX =    0.0                 !
 ! A12   A(6,3,8)              108.259          -DE/DX =    0.0                 !
 ! A13   A(7,3,8)              108.7601         -DE/DX =    0.0                 !
 ! D1    D(9,1,2,3)            -59.2716         -DE/DX =    0.0                 !
 ! D2    D(9,1,2,4)             64.5804         -DE/DX =    0.0                 !
 ! D3    D(9,1,2,5)           -179.5453         -DE/DX =    0.0                 !
 ! D4    D(1,2,3,6)             63.0318         -DE/DX =    0.0                 !
 ! D5    D(1,2,3,7)           -177.268          -DE/DX =    0.0                 !
 ! D6    D(1,2,3,8)            -56.7171         -DE/DX =    0.0                 !
 ! D7    D(4,2,3,6)            -61.0524         -DE/DX =    0.0                 !
 ! D8    D(4,2,3,7)             58.6478         -DE/DX =    0.0                 !
 ! D9    D(4,2,3,8)            179.1988         -DE/DX =    0.0                 !
 ! D10   D(5,2,3,6)           -179.4476         -DE/DX =    0.0                 !
 ! D11   D(5,2,3,7)            -59.7473         -DE/DX =    0.0                 !
 ! D12   D(5,2,3,8)             60.8036         -DE/DX =    0.0                 !
 --------------------------------------------------------------------------------
 GradGradGradGradGradGradGradGradGradGradGradGradGradGradGradGradGradGrad

 Leave Link  103 at Thu May 23 01:55:05 2019, MaxMem=   671088640 cpu:               0.4 elap:               0.1
 (Enter /shared/centos7/gaussian/g16/l9999.exe)

 ----------------------------------------------------------------------

 Electric dipole moment (input orientation):
 (Debye = 10**-18 statcoulomb cm , SI units = C m)
                  (au)            (Debye)         (10**-30 SI)
   Tot        0.654096D+00      0.166255D+01      0.554566D+01
   x         -0.563940D+00     -0.143339D+01     -0.478128D+01
   y         -0.550489D-01     -0.139920D+00     -0.466724D+00
   z         -0.326777D+00     -0.830584D+00     -0.277053D+01

 Dipole polarizability, Alpha (input orientation).
 (esu units = cm**3 , SI units = C**2 m**2 J**-1)
 Alpha(0;0):
               (au)            (10**-24 esu)      (10**-40 SI)
   iso        0.302635D+02      0.448459D+01      0.498978D+01
   aniso      0.340597D+01      0.504713D+00      0.561568D+00
   xx         0.316080D+02      0.468382D+01      0.521145D+01
   yx         0.254136D+00      0.376591D-01      0.419014D-01
   yy         0.302932D+02      0.448899D+01      0.499467D+01
   zx        -0.840957D+00     -0.124617D+00     -0.138655D+00
   zy        -0.111659D+01     -0.165462D+00     -0.184102D+00
   zz         0.288894D+02      0.428097D+01      0.476322D+01

 ----------------------------------------------------------------------

 Dipole orientation:
     8          1.46716007         -0.90131174         -2.53315762
     6          0.24933399          0.87478084         -0.94450041
     6         -1.55210673         -0.37223501          0.90399500
     1          1.63907271          2.02375997          0.07058918
     1         -0.78085661          2.13239837         -2.20733156
     1         -0.52942734         -1.62199327          2.18817299
     1         -2.53254822          1.03728103          2.04245359
     1         -2.94945267         -1.49282100         -0.10980563
     1          2.39260869         -2.06253762         -1.49072057

 Electric dipole moment (dipole orientation):
 (Debye = 10**-18 statcoulomb cm , SI units = C m)
                  (au)            (Debye)         (10**-30 SI)
   Tot        0.654096D+00      0.166255D+01      0.554566D+01
   x          0.000000D+00      0.000000D+00      0.000000D+00
   y          0.000000D+00      0.000000D+00      0.000000D+00
   z          0.654096D+00      0.166255D+01      0.554566D+01

 Dipole polarizability, Alpha (dipole orientation).
 (esu units = cm**3 , SI units = C**2 m**2 J**-1)
 Alpha(0;0):
               (au)            (10**-24 esu)      (10**-40 SI)
   iso        0.302635D+02      0.448459D+01      0.498978D+01
   aniso      0.340597D+01      0.504713D+00      0.561568D+00
   xx         0.302098D+02      0.447664D+01      0.498093D+01
   yx        -0.948419D+00     -0.140541D+00     -0.156373D+00
   yy         0.304421D+02      0.451105D+01      0.501922D+01
   zx        -0.169774D+01     -0.251579D+00     -0.279919D+00
   zy        -0.244733D+00     -0.362656D-01     -0.403510D-01
   zz         0.301387D+02      0.446609D+01      0.496920D+01

 ----------------------------------------------------------------------

 Test job not archived.
 1\1\GINC-C0265\Freq\RM062X\CC-pVTZ\C2H6O1\HARMS.N\23-May-2019\0\\#P Ge
 om=AllCheck Guess=TCheck SCRF=Check Test GenChk RM062X/CC-pVTZ Freq\\G
 aussian input prepared by ASE\\0,1\O,1.5241860087,0.5499499091,-0.0398
 272905\C,0.5198562972,-0.425047846,0.174899955\C,-0.8361775772,0.19552
 9868,0.4525653794\H,0.4570304521,-1.1109819387,-0.6763408319\H,0.85328
 50783,-1.0047876517,1.034775665\H,-1.1811488849,0.7703719984,-0.409176
 852\H,-1.5811448984,-0.5724285406,0.6616814283\H,-0.7752429241,0.86664
 73027,1.3082006261\H,1.2658253847,1.0914197347,-0.789357336\\Version=E
 M64L-G16RevA.03\State=1-A\HF=-155.0262985\RMSD=6.497e-10\RMSF=6.231e-0
 6\ZeroPoint=0.0805898\Thermal=0.0848941\Dipole=-0.5639398,-0.0550489,-
 0.3267768\DipoleDeriv=-0.791409,-0.2135538,0.1844646,-0.2758681,-0.679
 9457,-0.0067285,0.20876,-0.0015479,-0.4046007,0.6710467,0.2124144,-0.1
 101856,0.2081054,0.5486921,-0.0085486,-0.122675,-0.014762,0.3381175,-0
 .119407,0.0096523,0.0595997,0.0787235,0.0361749,-0.0233737,0.0455652,-
 0.0291495,0.0687473,-0.0262261,-0.0277232,0.020512,-0.0245458,-0.09744
 6,-0.0890539,0.0027903,-0.1416482,-0.1015153,-0.0171318,0.0380308,-0.0
 407633,0.0147788,-0.0216949,0.063717,-0.0368876,0.0989405,-0.0578632,0
 .0182615,0.0264495,-0.011228,0.0584346,-0.0044742,0.0760029,-0.0461726
 ,0.1005533,-0.083162,-0.0441963,-0.0669288,0.0308442,-0.1005045,-0.040
 0408,0.0275055,0.0342345,0.0214617,0.0627203,0.0368984,-0.0092994,-0.0
 263147,0.0321167,-0.0100078,-0.0866871,0.006504,-0.0871546,-0.044555,0
 .2721635,0.0309582,-0.1069289,0.0087594,0.2687425,0.0471665,-0.0921188
 ,0.0533066,0.2221111\Polar=31.6079849,0.2541364,30.293187,-0.8409573,-
 1.1165947,28.8894282\Quadrupole=-2.1810671,0.8486016,1.3324655,-0.0848
 612,-0.4490206,-1.2726876\PG=C01 [X(C2H6O1)]\NImag=0\\0.28241044,0.068
 69258,0.36781669,0.10557489,-0.26657901,0.40203574,-0.16258188,-0.1016
 1850,0.01852274,0.47884077,-0.06902118,-0.15903439,0.03535615,-0.02143
 980,0.55986635,-0.01081141,0.01525801,-0.08765282,0.04136258,-0.014595
 40,0.62295122,-0.03763039,-0.00014292,0.00799467,-0.17049154,0.0515212
 2,0.01869726,0.50644565,-0.03748845,0.00535790,0.00873844,0.06392544,-
 0.11233093,-0.01213125,0.03870927,0.56865886,0.01016274,0.00223929,0.0
 0142635,0.01593319,-0.01102380,-0.08910845,0.01478669,-0.00271212,0.57
 339230,-0.00998437,-0.02713330,-0.01771968,-0.04960023,-0.00197630,-0.
 00620210,0.00097870,0.01989120,0.02567849,0.06077610,-0.01585514,-0.02
 441996,-0.01465063,-0.00095440,-0.13942689,-0.11425861,0.00194049,-0.0
 0706651,-0.01278996,0.01205889,0.15863291,-0.00000445,0.00490418,0.012
 51923,-0.00880825,-0.11786229,-0.21548003,-0.00071376,-0.00272458,-0.0
 0402974,0.00806662,0.13132692,0.22370563,0.00446096,-0.02168345,0.0249
 0697,-0.07651153,0.04935018,-0.07434998,-0.01078988,0.01610401,-0.0246
 5905,0.00085457,0.00081742,-0.00016988,0.08814493,0.00042505,-0.021469
 61,0.02511514,0.04260040,-0.11725927,0.10047370,0.00642685,-0.00644436
 ,0.01081677,-0.00575904,0.01183891,-0.01545445,-0.04169811,0.13595346,
 0.00270684,0.00738989,-0.00335299,-0.06779772,0.10814232,-0.22236107,0
 .00239291,-0.00487986,0.00698397,-0.00911792,0.01218127,-0.02042570,0.
 07004079,-0.12123530,0.23494424,0.00347744,-0.00030568,0.00009308,-0.0
 1113222,0.01764534,-0.02647339,-0.07119544,0.04123147,-0.06436121,0.00
 127251,-0.00093693,0.00040532,-0.00513121,0.00233941,0.00186585,0.0776
 0359,-0.00097803,0.00155826,-0.00165784,0.00371376,-0.01010678,0.01329
 734,0.04194226,-0.11883931,0.10869757,-0.00048916,0.00004165,-0.000056
 95,0.00271093,-0.00009227,-0.00140233,-0.04916828,0.12697903,-0.001335
 60,-0.00201253,0.00129834,0.00349881,-0.00357767,0.00585352,-0.0641711
 4,0.10973180,-0.21605198,-0.00081834,0.00018491,0.00102498,0.00197706,
 -0.00045572,0.00123336,0.07045535,-0.12074560,0.23133447,-0.00859350,0
 .00173818,0.00249245,-0.01375948,-0.02482121,0.00386887,-0.17158944,-0
 .12833213,0.03575858,0.00103972,0.00063092,0.00049522,0.00074196,0.000
 11754,-0.00092741,0.00764537,0.00797813,-0.00154209,0.18575397,0.00409
 601,0.00118756,-0.00061093,0.00800450,0.01099299,-0.00271769,-0.129868
 65,-0.18321674,0.03628575,-0.00101222,0.00022194,-0.00009949,-0.000771
 05,0.00042469,0.00040423,-0.01092606,-0.01173201,0.00201622,0.14211752
 ,0.19547818,0.00186898,-0.00044695,0.00124039,0.00237667,0.00507727,-0
 .00319100,0.03582443,0.03610864,-0.05628895,-0.00038125,-0.00018804,-0
 .00014998,0.00000809,-0.00014442,0.00017365,0.01866958,0.01764493,-0.0
 0500082,-0.03925857,-0.04032586,0.05642109,0.00344369,-0.00103272,-0.0
 0199298,0.00095974,0.02128430,0.02665063,-0.04753078,-0.01269533,-0.01
 560225,-0.00565608,0.00237465,0.00125196,0.00142247,-0.00072234,-0.000
 43787,-0.00172611,-0.00632676,-0.00685805,-0.00122279,-0.01213755,-0.0
 1846125,0.05047861,-0.00045928,0.00203582,0.00141906,-0.00180652,-0.01
 148373,-0.01244894,-0.01057773,-0.14876155,-0.13023334,0.00302192,-0.0
 0007623,0.00004084,-0.00046098,0.00002590,0.00019874,0.00088928,0.0116
 8270,0.01430080,-0.00005344,-0.01305091,-0.01738274,0.00928041,0.15970
 815,-0.00034583,0.00162016,0.00060001,-0.00034153,-0.00419089,-0.00462
 969,-0.01439204,-0.13039184,-0.21708220,0.00098934,-0.00044688,0.00150
 384,0.00047363,0.00036190,0.00082164,-0.00135261,-0.01591768,-0.019324
 80,-0.00022556,0.00530900,0.00641012,0.01518891,0.14397908,0.23216671,
 -0.07500238,0.08148581,-0.13987213,0.00427638,-0.02254254,0.02725755,0
 .00180313,-0.00134547,0.00230282,0.00031908,-0.00007590,-0.00052278,-0
 .00319226,-0.00372976,0.00127455,-0.00081393,0.00061714,-0.00120600,-0
 .00001581,0.00049750,-0.00064668,-0.00016875,0.00016634,0.00000569,0.0
 7279454,0.05058844,-0.17303227,0.21286962,0.00757511,-0.02121736,0.027
 12284,0.00004921,0.00264263,-0.00128016,0.00139802,0.00025417,-0.00007
 419,-0.00436894,-0.00297746,-0.00079895,-0.00076856,0.00050873,0.00055
 778,0.00062450,-0.00030570,-0.00034283,-0.00002465,-0.00008015,-0.0003
 2285,-0.05507313,0.19420741,-0.10781615,0.23762697,-0.32811424,-0.0047
 4649,0.00267431,-0.00638167,-0.00041902,-0.00173924,0.00075871,-0.0004
 9517,-0.00135899,0.00133177,0.00177238,0.00052239,0.00198290,0.0006980
 3,0.00014055,-0.00036707,-0.00066148,-0.00026124,0.00038552,0.00026091
 ,0.00012651,-0.00046561,0.11140699,-0.23773126,0.33086970\\0.00001039,
 0.00000080,0.00000383,-0.00000278,-0.00001788,-0.00000233,-0.00000179,
 0.00000976,0.00000927,-0.00000125,0.00000304,-0.00000126,0.00000545,0.
 00000215,-0.00000976,-0.00000194,0.00000469,0.00000623,-0.00000139,0.0
 0000313,0.00000407,-0.00000121,-0.00000893,-0.00000438,-0.00000549,0.0
 0000324,-0.00000567\\\@


 MOM AND DAD WENT TO ALPHA CENTAURI AND ALL
 I GOT WAS THIS DUMB T-SHIRT.
 Job cpu time:       0 days  0 hours 30 minutes 24.7 seconds.
 Elapsed time:       0 days  0 hours  1 minutes 32.2 seconds.
 File lengths (MBytes):  RWF=    272 Int=      0 D2E=      0 Chk=     32 Scr=     32
 Normal termination of Gaussian 16 at Thu May 23 01:55:05 2019.
