 Entering Gaussian System, Link 0=g16
 Input=/scratch/harms.n/autotst-2.0-QMScratch/species/CCO/rotors/CCO_36by10_0_1.com
 Output=/scratch/harms.n/autotst-2.0-QMScratch/species/CCO/rotors/CCO_36by10_0_1.log
 Initial command:
 /shared/centos7/gaussian/g16/l1.exe "/scratch/harms.n/gauss_scrdir/Gau-48981.inp" -scrdir="/scratch/harms.n/gauss_scrdir/"
 Entering Link 1 = /shared/centos7/gaussian/g16/l1.exe PID=     48982.
  
 Copyright (c) 1988,1990,1992,1993,1995,1998,2003,2009,2016,
            Gaussian, Inc.  All Rights Reserved.
  
 This is part of the Gaussian(R) 16 program.  It is based on
 the Gaussian(R) 09 system (copyright 2009, Gaussian, Inc.),
 the Gaussian(R) 03 system (copyright 2003, Gaussian, Inc.),
 the Gaussian(R) 98 system (copyright 1998, Gaussian, Inc.),
 the Gaussian(R) 94 system (copyright 1995, Gaussian, Inc.),
 the Gaussian 92(TM) system (copyright 1992, Gaussian, Inc.),
 the Gaussian 90(TM) system (copyright 1990, Gaussian, Inc.),
 the Gaussian 88(TM) system (copyright 1988, Gaussian, Inc.),
 the Gaussian 86(TM) system (copyright 1986, Carnegie Mellon
 University), and the Gaussian 82(TM) system (copyright 1983,
 Carnegie Mellon University). Gaussian is a federally registered
 trademark of Gaussian, Inc.
  
 This software contains proprietary and confidential information,
 including trade secrets, belonging to Gaussian, Inc.
  
 This software is provided under written license and may be
 used, copied, transmitted, or stored only in accord with that
 written license.
  
 The following legend is applicable only to US Government
 contracts under FAR:
  
                    RESTRICTED RIGHTS LEGEND
  
 Use, reproduction and disclosure by the US Government is
 subject to restrictions as set forth in subparagraphs (a)
 and (c) of the Commercial Computer Software - Restricted
 Rights clause in FAR 52.227-19.
  
 Gaussian, Inc.
 340 Quinnipiac St., Bldg. 40, Wallingford CT 06492
  
  
 ---------------------------------------------------------------
 Warning -- This program may not be used in any manner that
 competes with the business of Gaussian, Inc. or will provide
 assistance to any competitor of Gaussian, Inc.  The licensee
 of this program is prohibited from giving any competitor of
 Gaussian, Inc. access to this program.  By using this program,
 the user acknowledges that Gaussian, Inc. is engaged in the
 business of creating and licensing software in the field of
 computational chemistry and represents and warrants to the
 licensee that it is not a competitor of Gaussian, Inc. and that
 it will not use this program in any manner prohibited above.
 ---------------------------------------------------------------
  

 Cite this work as:
 Gaussian 16, Revision A.03,
 M. J. Frisch, G. W. Trucks, H. B. Schlegel, G. E. Scuseria, 
 M. A. Robb, J. R. Cheeseman, G. Scalmani, V. Barone, 
 G. A. Petersson, H. Nakatsuji, X. Li, M. Caricato, A. V. Marenich, 
 J. Bloino, B. G. Janesko, R. Gomperts, B. Mennucci, H. P. Hratchian, 
 J. V. Ortiz, A. F. Izmaylov, J. L. Sonnenberg, D. Williams-Young, 
 F. Ding, F. Lipparini, F. Egidi, J. Goings, B. Peng, A. Petrone, 
 T. Henderson, D. Ranasinghe, V. G. Zakrzewski, J. Gao, N. Rega, 
 G. Zheng, W. Liang, M. Hada, M. Ehara, K. Toyota, R. Fukuda, 
 J. Hasegawa, M. Ishida, T. Nakajima, Y. Honda, O. Kitao, H. Nakai, 
 T. Vreven, K. Throssell, J. A. Montgomery, Jr., J. E. Peralta, 
 F. Ogliaro, M. J. Bearpark, J. J. Heyd, E. N. Brothers, K. N. Kudin, 
 V. N. Staroverov, T. A. Keith, R. Kobayashi, J. Normand, 
 K. Raghavachari, A. P. Rendell, J. C. Burant, S. S. Iyengar, 
 J. Tomasi, M. Cossi, J. M. Millam, M. Klene, C. Adamo, R. Cammi, 
 J. W. Ochterski, R. L. Martin, K. Morokuma, O. Farkas, 
 J. B. Foresman, and D. J. Fox, Gaussian, Inc., Wallingford CT, 2016.
 
 ******************************************
 Gaussian 16:  EM64L-G16RevA.03 25-Dec-2016
                10-Aug-2019 
 ******************************************
 %nprocshared=20
 Will use up to   20 processors via shared memory.
 %mem=5GB
 --------------------------------------
 #p m062x/cc-pVTZ Opt=(CalcFC,ModRedun)
 --------------------------------------
 1/10=4,18=120,19=15,26=3,38=1/1,3;
 2/9=110,12=2,17=6,18=5,40=1/2;
 3/5=16,6=1,11=2,25=1,30=1,71=2,74=-55,140=1/1,2,3;
 4//1;
 5/5=2,38=5/2;
 8/6=4,10=90,11=11/1;
 11/6=1,8=1,9=11,15=111,16=1/1,2,10;
 10/6=1,13=1/2;
 6/7=2,8=2,9=2,10=2,28=1/1;
 7/10=1,18=20,25=1/1,2,3,16;
 1/10=4,18=20,19=15,26=3/3(2);
 2/9=110/2;
 99//99;
 2/9=110/2;
 3/5=16,6=1,11=2,25=1,30=1,71=1,74=-55/1,2,3;
 4/5=5,16=3,69=1/1;
 5/5=2,38=5/2;
 7//1,2,3,16;
 1/18=20,19=15,26=3/3(-5);
 2/9=110/2;
 6/7=2,8=2,9=2,10=2,19=2,28=1/1;
 99/9=1/99;
 Leave Link    1 at Sat Aug 10 04:22:16 2019, MaxMem=   671088640 cpu:              26.9 elap:               1.4
 (Enter /shared/centos7/gaussian/g16/l101.exe)
 ------------------------------
 Gaussian input prepared by ASE
 ------------------------------
 Symbolic Z-matrix:
 Charge =  0 Multiplicity = 1
 O                     1.56193   0.42957  -0.09866 
 C                     0.48821  -0.47342   0.10537 
 C                     1.05838  -1.87323   0.0965 
 H                    -0.00698  -0.27627   1.0618 
 H                    -0.26106  -0.36903  -0.68617 
 H                     1.79757  -1.98132   0.8889 
 H                     0.2709   -2.61057   0.24859 
 H                     1.54592  -2.07273  -0.85663 
 H                     1.22159   1.32606  -0.09556 
 
 The following ModRedundant input section has been read:
 B       1       9 B                                                           
 B       1       2 B                                                           
 B       2       3 B                                                           
 B       2       4 B                                                           
 B       2       5 B                                                           
 B       3       6 B                                                           
 B       3       7 B                                                           
 B       3       8 B                                                           
 D       9       1       2       5 S  36 10.000                                
 D       5       2       3       8 F                                           
 
 ITRead=  0  0  0  0  0  0  0  0  0
 MicOpt= -1 -1 -1 -1 -1 -1 -1 -1 -1
 NAtoms=      9 NQM=        9 NQMF=       0 NMMI=      0 NMMIF=      0
                NMic=       0 NMicF=      0.
                    Isotopes and Nuclear Properties:
 (Nuclear quadrupole moments (NQMom) in fm**2, nuclear magnetic moments (NMagM)
  in nuclear magnetons)

  Atom         1           2           3           4           5           6           7           8           9
 IAtWgt=          16          12          12           1           1           1           1           1           1
 AtmWgt=  15.9949146  12.0000000  12.0000000   1.0078250   1.0078250   1.0078250   1.0078250   1.0078250   1.0078250
 NucSpn=           0           0           0           1           1           1           1           1           1
 AtZEff=  -0.0000000  -0.0000000  -0.0000000  -0.0000000  -0.0000000  -0.0000000  -0.0000000  -0.0000000  -0.0000000
 NQMom=    0.0000000   0.0000000   0.0000000   0.0000000   0.0000000   0.0000000   0.0000000   0.0000000   0.0000000
 NMagM=    0.0000000   0.0000000   0.0000000   2.7928460   2.7928460   2.7928460   2.7928460   2.7928460   2.7928460
 AtZNuc=   8.0000000   6.0000000   6.0000000   1.0000000   1.0000000   1.0000000   1.0000000   1.0000000   1.0000000
 Leave Link  101 at Sat Aug 10 04:22:16 2019, MaxMem=   671088640 cpu:               5.6 elap:               0.3
 (Enter /shared/centos7/gaussian/g16/l103.exe)

 GradGradGradGradGradGradGradGradGradGradGradGradGradGradGradGradGradGrad
 Berny optimization.
 Initialization pass.
                           ----------------------------
                           !    Initial Parameters    !
                           ! (Angstroms and Degrees)  !
 --------------------------                            --------------------------
 ! Name  Definition              Value          Derivative Info.                !
 --------------------------------------------------------------------------------
 ! R1    R(1,2)                  1.4177         calculate D2E/DX2 analytically  !
 ! R2    R(1,9)                  0.9589         calculate D2E/DX2 analytically  !
 ! R3    R(2,3)                  1.5115         calculate D2E/DX2 analytically  !
 ! R4    R(2,4)                  1.0949         calculate D2E/DX2 analytically  !
 ! R5    R(2,5)                  1.0949         calculate D2E/DX2 analytically  !
 ! R6    R(3,6)                  1.089          calculate D2E/DX2 analytically  !
 ! R7    R(3,7)                  1.0895         calculate D2E/DX2 analytically  !
 ! R8    R(3,8)                  1.089          calculate D2E/DX2 analytically  !
 ! A1    A(2,1,9)              109.0385         calculate D2E/DX2 analytically  !
 ! A2    A(1,2,3)              107.6582         calculate D2E/DX2 analytically  !
 ! A3    A(1,2,4)              110.7052         calculate D2E/DX2 analytically  !
 ! A4    A(1,2,5)              110.702          calculate D2E/DX2 analytically  !
 ! A5    A(3,2,4)              110.0284         calculate D2E/DX2 analytically  !
 ! A6    A(3,2,5)              110.0105         calculate D2E/DX2 analytically  !
 ! A7    A(4,2,5)              107.7473         calculate D2E/DX2 analytically  !
 ! A8    A(2,3,6)              110.102          calculate D2E/DX2 analytically  !
 ! A9    A(2,3,7)              110.6893         calculate D2E/DX2 analytically  !
 ! A10   A(2,3,8)              110.1009         calculate D2E/DX2 analytically  !
 ! A11   A(6,3,7)              108.776          calculate D2E/DX2 analytically  !
 ! A12   A(6,3,8)              108.3474         calculate D2E/DX2 analytically  !
 ! A13   A(7,3,8)              108.771          calculate D2E/DX2 analytically  !
 ! D1    D(9,1,2,3)           -179.9353         calculate D2E/DX2 analytically  !
 ! D2    D(9,1,2,4)            -59.6332         calculate D2E/DX2 analytically  !
 ! D3    D(9,1,2,5)             59.7862         Scan                            !
 ! D4    D(1,2,3,6)             59.7808         calculate D2E/DX2 analytically  !
 ! D5    D(1,2,3,7)           -179.9148         calculate D2E/DX2 analytically  !
 ! D6    D(1,2,3,8)            -59.6174         calculate D2E/DX2 analytically  !
 ! D7    D(4,2,3,6)            -60.9477         calculate D2E/DX2 analytically  !
 ! D8    D(4,2,3,7)             59.3567         calculate D2E/DX2 analytically  !
 ! D9    D(4,2,3,8)            179.6541         calculate D2E/DX2 analytically  !
 ! D10   D(5,2,3,6)           -179.5051         calculate D2E/DX2 analytically  !
 ! D11   D(5,2,3,7)            -59.2007         calculate D2E/DX2 analytically  !
 ! D12   D(5,2,3,8)             61.0966         frozen, calculate D2E/DX2 analyt!
 --------------------------------------------------------------------------------
 Trust Radius=3.00D-01 FncErr=1.00D-07 GrdErr=1.00D-06 EigMax=2.50D+02 EigMin=1.00D-04
 Number of optimizations in scan=  37
 Number of steps in this run=     43 maximum allowed number of steps=    100.
 GradGradGradGradGradGradGradGradGradGradGradGradGradGradGradGradGradGrad

 Leave Link  103 at Sat Aug 10 04:22:16 2019, MaxMem=   671088640 cpu:               0.6 elap:               0.1
 (Enter /shared/centos7/gaussian/g16/l202.exe)
                          Input orientation:                          
 ---------------------------------------------------------------------
 Center     Atomic      Atomic             Coordinates (Angstroms)
 Number     Number       Type             X           Y           Z
 ---------------------------------------------------------------------
      1          8           0        1.561928    0.429571   -0.098662
      2          6           0        0.488214   -0.473421    0.105374
      3          6           0        1.058382   -1.873229    0.096501
      4          1           0       -0.006980   -0.276273    1.061799
      5          1           0       -0.261064   -0.369028   -0.686168
      6          1           0        1.797569   -1.981323    0.888901
      7          1           0        0.270897   -2.610572    0.248586
      8          1           0        1.545917   -2.072733   -0.856626
      9          1           0        1.221592    1.326057   -0.095556
 ---------------------------------------------------------------------
                    Distance matrix (angstroms):
                    1          2          3          4          5
     1  O    0.000000
     2  C    1.417704   0.000000
     3  C    2.365277   1.511501   0.000000
     4  H    2.075176   1.094912   2.148736   0.000000
     5  H    2.075144   1.094922   2.148518   1.768770   0.000000
     6  H    2.615955   2.145249   1.089027   2.488672   3.052590
     7  H    3.321116   2.152940   1.089466   2.487465   2.486215
     8  H    2.614630   2.145222   1.089010   3.052722   2.489347
     9  H    0.958918   1.953544   3.209198   2.327298   2.328176
                    6          7          8          9
     6  H    0.000000
     7  H    1.771069   0.000000
     8  H    1.765941   1.770999   0.000000
     9  H    3.498524   4.064394   3.498026   0.000000
 Stoichiometry    C2H6O
 Framework group  C1[X(C2H6O)]
 Deg. of freedom    21
 Full point group                 C1      NOp   1
 Largest Abelian subgroup         C1      NOp   1
 Largest concise Abelian subgroup C1      NOp   1
                         Standard orientation:                         
 ---------------------------------------------------------------------
 Center     Atomic      Atomic             Coordinates (Angstroms)
 Number     Number       Type             X           Y           Z
 ---------------------------------------------------------------------
      1          8           0        1.143091   -0.394980   -0.000123
      2          6           0        0.084694    0.548249   -0.000034
      3          6           0       -1.215850   -0.221960    0.000070
      4          1           0        0.139576    1.191600    0.884228
      5          1           0        0.139240    1.191307   -0.884542
      6          1           0       -1.275542   -0.855576    0.883782
      7          1           0       -2.066390    0.458861   -0.001374
      8          1           0       -1.274383   -0.857720   -0.882158
      9          1           0        1.979706    0.073633    0.000833
 ---------------------------------------------------------------------
 Rotational constants (GHZ):          35.3409830           9.4652902           8.2313347
 Leave Link  202 at Sat Aug 10 04:22:16 2019, MaxMem=   671088640 cpu:               0.5 elap:               0.0
 (Enter /shared/centos7/gaussian/g16/l301.exe)
 Standard basis: CC-pVTZ (5D, 7F)
 Ernie: Thresh=  0.10000D-02 Tol=  0.10000D-05 Strict=F.
 Ernie:  9 primitive shells out of 126 were deleted.
 There are   195 symmetry adapted cartesian basis functions of A   symmetry.
 There are   174 symmetry adapted basis functions of A   symmetry.
   174 basis functions,   258 primitive gaussians,   195 cartesian basis functions
    13 alpha electrons       13 beta electrons
       nuclear repulsion energy        82.0974806686 Hartrees.
 IExCor= 4336 DFT=T Ex+Corr=M062X ExCW=0 ScaHFX=  0.540000
 ScaDFX=  1.000000  1.000000  1.000000  1.000000 ScalE2=  1.000000  1.000000
 IRadAn=      5 IRanWt=     -1 IRanGd=            0 ICorTp=0 IEmpDi=  4
 NAtoms=    9 NActive=    9 NUniq=    9 SFac= 1.00D+00 NAtFMM=   60 NAOKFM=F Big=F
 Integral buffers will be    131072 words long.
 Raffenetti 2 integral format.
 Two-electron integral symmetry is turned on.
 Leave Link  301 at Sat Aug 10 04:22:16 2019, MaxMem=   671088640 cpu:               1.1 elap:               0.1
 (Enter /shared/centos7/gaussian/g16/l302.exe)
 NPDir=0 NMtPBC=     1 NCelOv=     1 NCel=       1 NClECP=     1 NCelD=      1
         NCelK=      1 NCelE2=     1 NClLst=     1 CellRange=     0.0.
 One-electron integrals computed using PRISM.
 One-electron integral symmetry used in STVInt
 NBasis=   174 RedAO= T EigKep=  1.03D-03  NBF=   174
 NBsUse=   174 1.00D-06 EigRej= -1.00D+00 NBFU=   174
 Precomputing XC quadrature grid using
 IXCGrd= 4 IRadAn=           5 IRanWt=          -1 IRanGd=           0 AccXCQ= 0.00D+00.
 Generated NRdTot=       0 NPtTot=           0 NUsed=           0 NTot=          32
 NSgBfM=   195   195   195   195   195 MxSgAt=     9 MxSgA2=     9.
 Leave Link  302 at Sat Aug 10 04:22:17 2019, MaxMem=   671088640 cpu:               4.5 elap:               0.3
 (Enter /shared/centos7/gaussian/g16/l303.exe)
 DipDrv:  MaxL=1.
 Leave Link  303 at Sat Aug 10 04:22:17 2019, MaxMem=   671088640 cpu:               0.9 elap:               0.1
 (Enter /shared/centos7/gaussian/g16/l401.exe)
 ExpMin= 1.03D-01 ExpMax= 1.53D+04 ExpMxC= 5.22D+02 IAcc=3 IRadAn=         5 AccDes= 0.00D+00
 Harris functional with IExCor= 1009 and IRadAn=       5 diagonalized for initial guess.
 HarFok:  IExCor= 1009 AccDes= 0.00D+00 IRadAn=         5 IDoV= 1 UseB2=F ITyADJ=14
 ICtDFT=  3500011 ScaDFX=  1.000000  1.000000  1.000000  1.000000
 FoFCou: FMM=F IPFlag=           0 FMFlag=      100000 FMFlg1=           0
         NFxFlg=           0 DoJE=T BraDBF=F KetDBF=T FulRan=T
         wScrn=  0.000000 ICntrl=       500 IOpCl=  0 I1Cent=   200000004 NGrid=           0
         NMat0=    1 NMatS0=      1 NMatT0=    0 NMatD0=    1 NMtDS0=    0 NMtDT0=    0
 Petite list used in FoFCou.
 Harris En= -155.004906161949    
 JPrj=0 DoOrth=F DoCkMO=F.
 Leave Link  401 at Sat Aug 10 04:22:17 2019, MaxMem=   671088640 cpu:              14.3 elap:               0.7
 (Enter /shared/centos7/gaussian/g16/l502.exe)
 Keep R1 ints in memory in canonical form, NReq=136340328.
 FoFCou: FMM=F IPFlag=           0 FMFlag=           0 FMFlg1=           0
         NFxFlg=           0 DoJE=F BraDBF=F KetDBF=F FulRan=T
         wScrn=  0.000000 ICntrl=       600 IOpCl=  0 I1Cent=           0 NGrid=           0
         NMat0=    1 NMatS0=  15225 NMatT0=    0 NMatD0=    1 NMtDS0=    0 NMtDT0=    0
 Symmetry not used in FoFCou.
 Two-electron integral symmetry not used.
 Closed shell SCF:
 Using DIIS extrapolation, IDIIS=  1040.
 NGot=   671088640 LenX=   555098904 LenY=   555060438
 Requested convergence on RMS density matrix=1.00D-08 within 128 cycles.
 Requested convergence on MAX density matrix=1.00D-06.
 Requested convergence on             energy=1.00D-06.
 No special actions if energy rises.
 Integral accuracy reduced to 1.0D-05 until final iterations.

 Cycle   1  Pass 0  IDiag  1:
 E= -154.886799526555    
 DIIS: error= 3.39D-02 at cycle   1 NSaved=   1.
 NSaved= 1 IEnMin= 1 EnMin= -154.886799526555     IErMin= 1 ErrMin= 3.39D-02
 ErrMax= 3.39D-02  0.00D+00 EMaxC= 1.00D-01 BMatC= 1.74D-01 BMatP= 1.74D-01
 IDIUse=3 WtCom= 6.61D-01 WtEn= 3.39D-01
 Coeff-Com:  0.100D+01
 Coeff-En:   0.100D+01
 Coeff:      0.100D+01
 Gap=     0.346 Goal=   None    Shift=    0.000
 GapD=    0.346 DampG=1.000 DampE=0.500 DampFc=0.5000 IDamp=-1.
 Damping current iteration by 5.00D-01
 RMSDP=3.14D-03 MaxDP=8.80D-02              OVMax= 1.47D-01

 Cycle   2  Pass 0  IDiag  1:
 E= -154.956380213429     Delta-E=       -0.069580686875 Rises=F Damp=T
 DIIS: error= 8.09D-03 at cycle   2 NSaved=   2.
 NSaved= 2 IEnMin= 2 EnMin= -154.956380213429     IErMin= 2 ErrMin= 8.09D-03
 ErrMax= 8.09D-03  0.00D+00 EMaxC= 1.00D-01 BMatC= 1.02D-02 BMatP= 1.74D-01
 IDIUse=3 WtCom= 9.19D-01 WtEn= 8.09D-02
 Coeff-Com: -0.387D-01 0.104D+01
 Coeff-En:   0.000D+00 0.100D+01
 Coeff:     -0.355D-01 0.104D+01
 Gap=     0.426 Goal=   None    Shift=    0.000
 RMSDP=5.29D-04 MaxDP=1.13D-02 DE=-6.96D-02 OVMax= 7.70D-02

 Cycle   3  Pass 0  IDiag  1:
 E= -155.025021076874     Delta-E=       -0.068640863445 Rises=F Damp=F
 DIIS: error= 2.76D-03 at cycle   3 NSaved=   3.
 NSaved= 3 IEnMin= 3 EnMin= -155.025021076874     IErMin= 3 ErrMin= 2.76D-03
 ErrMax= 2.76D-03  0.00D+00 EMaxC= 1.00D-01 BMatC= 1.91D-03 BMatP= 1.02D-02
 IDIUse=3 WtCom= 9.72D-01 WtEn= 2.76D-02
 Coeff-Com: -0.498D-01 0.272D+00 0.778D+00
 Coeff-En:   0.000D+00 0.000D+00 0.100D+01
 Coeff:     -0.484D-01 0.264D+00 0.784D+00
 Gap=     0.410 Goal=   None    Shift=    0.000
 RMSDP=1.92D-04 MaxDP=5.14D-03 DE=-6.86D-02 OVMax= 1.06D-02

 Cycle   4  Pass 0  IDiag  1:
 E= -155.025899436521     Delta-E=       -0.000878359647 Rises=F Damp=F
 DIIS: error= 1.68D-03 at cycle   4 NSaved=   4.
 NSaved= 4 IEnMin= 4 EnMin= -155.025899436521     IErMin= 4 ErrMin= 1.68D-03
 ErrMax= 1.68D-03  0.00D+00 EMaxC= 1.00D-01 BMatC= 5.38D-04 BMatP= 1.91D-03
 IDIUse=3 WtCom= 9.83D-01 WtEn= 1.68D-02
 Coeff-Com: -0.173D-01 0.519D-01 0.380D+00 0.586D+00
 Coeff-En:   0.000D+00 0.000D+00 0.202D+00 0.798D+00
 Coeff:     -0.171D-01 0.510D-01 0.377D+00 0.589D+00
 Gap=     0.412 Goal=   None    Shift=    0.000
 RMSDP=7.33D-05 MaxDP=1.57D-03 DE=-8.78D-04 OVMax= 4.20D-03

 Cycle   5  Pass 0  IDiag  1:
 E= -155.026292063252     Delta-E=       -0.000392626731 Rises=F Damp=F
 DIIS: error= 2.50D-04 at cycle   5 NSaved=   5.
 NSaved= 5 IEnMin= 5 EnMin= -155.026292063252     IErMin= 5 ErrMin= 2.50D-04
 ErrMax= 2.50D-04  0.00D+00 EMaxC= 1.00D-01 BMatC= 7.02D-06 BMatP= 5.38D-04
 IDIUse=3 WtCom= 9.98D-01 WtEn= 2.50D-03
 Coeff-Com: -0.157D-02 0.167D-02 0.662D-01 0.162D+00 0.772D+00
 Coeff-En:   0.000D+00 0.000D+00 0.000D+00 0.000D+00 0.100D+01
 Coeff:     -0.156D-02 0.167D-02 0.661D-01 0.162D+00 0.772D+00
 Gap=     0.412 Goal=   None    Shift=    0.000
 RMSDP=9.50D-06 MaxDP=1.87D-04 DE=-3.93D-04 OVMax= 6.85D-04

 Initial convergence to 1.0D-05 achieved.  Increase integral accuracy.
 Cycle   6  Pass 1  IDiag  1:
 E= -155.026292866654     Delta-E=       -0.000000803402 Rises=F Damp=F
 DIIS: error= 4.86D-05 at cycle   1 NSaved=   1.
 NSaved= 1 IEnMin= 1 EnMin= -155.026292866654     IErMin= 1 ErrMin= 4.86D-05
 ErrMax= 4.86D-05  0.00D+00 EMaxC= 1.00D-01 BMatC= 3.12D-07 BMatP= 3.12D-07
 IDIUse=1 WtCom= 1.00D+00 WtEn= 0.00D+00
 Coeff-Com:  0.100D+01
 Coeff:      0.100D+01
 Gap=     0.411 Goal=   None    Shift=    0.000
 RMSDP=9.50D-06 MaxDP=1.87D-04 DE=-8.03D-07 OVMax= 1.71D-04

 Cycle   7  Pass 1  IDiag  1:
 E= -155.026293052183     Delta-E=       -0.000000185529 Rises=F Damp=F
 DIIS: error= 2.31D-05 at cycle   2 NSaved=   2.
 NSaved= 2 IEnMin= 2 EnMin= -155.026293052183     IErMin= 2 ErrMin= 2.31D-05
 ErrMax= 2.31D-05  0.00D+00 EMaxC= 1.00D-01 BMatC= 9.10D-08 BMatP= 3.12D-07
 IDIUse=1 WtCom= 1.00D+00 WtEn= 0.00D+00
 Coeff-Com:  0.313D+00 0.687D+00
 Coeff:      0.313D+00 0.687D+00
 Gap=     0.412 Goal=   None    Shift=    0.000
 RMSDP=1.20D-06 MaxDP=4.22D-05 DE=-1.86D-07 OVMax= 9.39D-05

 Cycle   8  Pass 1  IDiag  1:
 E= -155.026293125206     Delta-E=       -0.000000073023 Rises=F Damp=F
 DIIS: error= 8.74D-06 at cycle   3 NSaved=   3.
 NSaved= 3 IEnMin= 3 EnMin= -155.026293125206     IErMin= 3 ErrMin= 8.74D-06
 ErrMax= 8.74D-06  0.00D+00 EMaxC= 1.00D-01 BMatC= 8.43D-09 BMatP= 9.10D-08
 IDIUse=1 WtCom= 1.00D+00 WtEn= 0.00D+00
 Coeff-Com: -0.251D-01 0.205D+00 0.820D+00
 Coeff:     -0.251D-01 0.205D+00 0.820D+00
 Gap=     0.412 Goal=   None    Shift=    0.000
 RMSDP=3.45D-07 MaxDP=9.69D-06 DE=-7.30D-08 OVMax= 2.46D-05

 Cycle   9  Pass 1  IDiag  1:
 E= -155.026293133062     Delta-E=       -0.000000007856 Rises=F Damp=F
 DIIS: error= 1.10D-06 at cycle   4 NSaved=   4.
 NSaved= 4 IEnMin= 4 EnMin= -155.026293133062     IErMin= 4 ErrMin= 1.10D-06
 ErrMax= 1.10D-06  0.00D+00 EMaxC= 1.00D-01 BMatC= 2.56D-10 BMatP= 8.43D-09
 IDIUse=1 WtCom= 1.00D+00 WtEn= 0.00D+00
 Coeff-Com: -0.184D-01 0.284D-01 0.219D+00 0.771D+00
 Coeff:     -0.184D-01 0.284D-01 0.219D+00 0.771D+00
 Gap=     0.412 Goal=   None    Shift=    0.000
 RMSDP=7.51D-08 MaxDP=1.80D-06 DE=-7.86D-09 OVMax= 4.74D-06

 Cycle  10  Pass 1  IDiag  1:
 E= -155.026293133296     Delta-E=       -0.000000000233 Rises=F Damp=F
 DIIS: error= 3.57D-07 at cycle   5 NSaved=   5.
 NSaved= 5 IEnMin= 5 EnMin= -155.026293133296     IErMin= 5 ErrMin= 3.57D-07
 ErrMax= 3.57D-07  0.00D+00 EMaxC= 1.00D-01 BMatC= 3.45D-11 BMatP= 2.56D-10
 IDIUse=1 WtCom= 1.00D+00 WtEn= 0.00D+00
 Coeff-Com: -0.482D-02-0.319D-02 0.241D-01 0.269D+00 0.715D+00
 Coeff:     -0.482D-02-0.319D-02 0.241D-01 0.269D+00 0.715D+00
 Gap=     0.412 Goal=   None    Shift=    0.000
 RMSDP=3.04D-08 MaxDP=7.85D-07 DE=-2.33D-10 OVMax= 1.77D-06

 Cycle  11  Pass 1  IDiag  1:
 E= -155.026293133318     Delta-E=       -0.000000000023 Rises=F Damp=F
 DIIS: error= 1.76D-07 at cycle   6 NSaved=   6.
 NSaved= 6 IEnMin= 6 EnMin= -155.026293133318     IErMin= 6 ErrMin= 1.76D-07
 ErrMax= 1.76D-07  0.00D+00 EMaxC= 1.00D-01 BMatC= 7.46D-12 BMatP= 3.45D-11
 IDIUse=1 WtCom= 1.00D+00 WtEn= 0.00D+00
 Coeff-Com:  0.128D-02-0.716D-02-0.304D-01-0.127D-01 0.335D+00 0.714D+00
 Coeff:      0.128D-02-0.716D-02-0.304D-01-0.127D-01 0.335D+00 0.714D+00
 Gap=     0.412 Goal=   None    Shift=    0.000
 RMSDP=1.05D-08 MaxDP=2.54D-07 DE=-2.29D-11 OVMax= 6.26D-07

 Cycle  12  Pass 1  IDiag  1:
 E= -155.026293133326     Delta-E=       -0.000000000008 Rises=F Damp=F
 DIIS: error= 1.68D-08 at cycle   7 NSaved=   7.
 NSaved= 7 IEnMin= 7 EnMin= -155.026293133326     IErMin= 7 ErrMin= 1.68D-08
 ErrMax= 1.68D-08  0.00D+00 EMaxC= 1.00D-01 BMatC= 2.29D-14 BMatP= 7.46D-12
 IDIUse=1 WtCom= 1.00D+00 WtEn= 0.00D+00
 Coeff-Com:  0.199D-03-0.731D-03-0.348D-02-0.515D-02 0.249D-01 0.671D-01
 Coeff-Com:  0.917D+00
 Coeff:      0.199D-03-0.731D-03-0.348D-02-0.515D-02 0.249D-01 0.671D-01
 Coeff:      0.917D+00
 Gap=     0.412 Goal=   None    Shift=    0.000
 RMSDP=1.01D-09 MaxDP=2.47D-08 DE=-7.50D-12 OVMax= 5.89D-08

 SCF Done:  E(RM062X) =  -155.026293133     A.U. after   12 cycles
            NFock= 12  Conv=0.10D-08     -V/T= 2.0055
 KE= 1.541802136414D+02 PE=-5.265687478474D+02 EE= 1.352647604040D+02
 Leave Link  502 at Sat Aug 10 04:22:27 2019, MaxMem=   671088640 cpu:             157.1 elap:              10.0
 (Enter /shared/centos7/gaussian/g16/l801.exe)
 DoSCS=F DFT=T ScalE2(SS,OS)=  1.000000  1.000000
 Range of M.O.s used for correlation:     1   174
 NBasis=   174 NAE=    13 NBE=    13 NFC=     0 NFV=     0
 NROrb=    174 NOA=    13 NOB=    13 NVA=   161 NVB=   161

 **** Warning!!: The largest alpha MO coefficient is  0.12115017D+02

 Leave Link  801 at Sat Aug 10 04:22:27 2019, MaxMem=   671088640 cpu:               0.4 elap:               0.0
 (Enter /shared/centos7/gaussian/g16/l1101.exe)
 Using compressed storage, NAtomX=     9.
 Will process     10 centers per pass.
 Leave Link 1101 at Sat Aug 10 04:22:28 2019, MaxMem=   671088640 cpu:               4.9 elap:               0.3
 (Enter /shared/centos7/gaussian/g16/l1102.exe)
 Symmetrizing basis deriv contribution to polar:
 IMax=3 JMax=2 DiffMx= 0.00D+00
 Leave Link 1102 at Sat Aug 10 04:22:28 2019, MaxMem=   671088640 cpu:               0.4 elap:               0.0
 (Enter /shared/centos7/gaussian/g16/l1110.exe)
 Forming Gx(P) for the SCF density, NAtomX=     9.
 Integral derivatives from FoFJK, PRISM(SPDF).
 Do as many integral derivatives as possible in FoFJK.
 G2DrvN: MDV=     671087856.
 G2DrvN: will do    10 centers at a time, making    1 passes.
 Calling FoFCou, ICntrl=  3107 FMM=F I1Cent=   0 AccDes= 0.00D+00.
 FoFJK:  IHMeth= 1 ICntrl=    3107 DoSepK=F KAlg= 0 I1Cent=           0 FoldK=F
 IRaf=         0 NMat=       1 IRICut=       1 DoRegI=T DoRafI=F ISym2E= 0 IDoP0=0 IntGTp=1.
 FoFCou: FMM=F IPFlag=           0 FMFlag=      100000 FMFlg1=           0
         NFxFlg=           0 DoJE=F BraDBF=F KetDBF=F FulRan=T
         wScrn=  0.000000 ICntrl=      3107 IOpCl=  0 I1Cent=           0 NGrid=           0
         NMat0=    1 NMatS0=      1 NMatT0=    0 NMatD0=    1 NMtDS0=    0 NMtDT0=    0
 Symmetry not used in FoFCou.
 End of G2Drv F.D. properties file   721 does not exist.
 End of G2Drv F.D. properties file   722 does not exist.
 End of G2Drv F.D. properties file   788 does not exist.
 Leave Link 1110 at Sat Aug 10 04:22:49 2019, MaxMem=   671088640 cpu:             421.5 elap:              21.1
 (Enter /shared/centos7/gaussian/g16/l1002.exe)
 Minotr:  Closed shell wavefunction.
          IDoAtm=111111111
          Direct CPHF calculation.
          Differentiating once with respect to nuclear coordinates.
          Requested convergence is 1.0D-08 RMS, and 1.0D-07 maximum.
          Secondary convergence is 1.0D-12 RMS, and 1.0D-12 maximum.
          NewPWx=T KeepS1=F KeepF1=F KeepIn=T MapXYZ=F SortEE=F KeepMc=T.
         2669 words used for storage of precomputed grid.
 Keep R1 ints in memory in canonical form, NReq=136278967.
 FoFCou: FMM=F IPFlag=           0 FMFlag=           0 FMFlg1=           0
         NFxFlg=           0 DoJE=F BraDBF=F KetDBF=F FulRan=T
         wScrn=  0.000000 ICntrl=       600 IOpCl=  0 I1Cent=           0 NGrid=           0
         NMat0=    1 NMatS0=  15225 NMatT0=    0 NMatD0=    1 NMtDS0=    0 NMtDT0=    0
 Symmetry not used in FoFCou.
 Two-electron integral symmetry not used.
          MDV=     671088640 using IRadAn=       1.
          Solving linear equations simultaneously, MaxMat=       0.
          There are    30 degrees of freedom in the 1st order CPHF.  IDoFFX=6 NUNeed=     0.
     24 vectors produced by pass  0 Test12= 6.98D-15 3.33D-09 XBig12= 5.21D-02 7.64D-02.
 AX will form    24 AO Fock derivatives at one time.
     24 vectors produced by pass  1 Test12= 6.98D-15 3.33D-09 XBig12= 4.41D-03 1.64D-02.
     24 vectors produced by pass  2 Test12= 6.98D-15 3.33D-09 XBig12= 1.44D-04 2.87D-03.
     24 vectors produced by pass  3 Test12= 6.98D-15 3.33D-09 XBig12= 1.56D-06 3.08D-04.
     24 vectors produced by pass  4 Test12= 6.98D-15 3.33D-09 XBig12= 1.02D-08 1.58D-05.
     24 vectors produced by pass  5 Test12= 6.98D-15 3.33D-09 XBig12= 3.58D-11 1.19D-06.
      9 vectors produced by pass  6 Test12= 6.98D-15 3.33D-09 XBig12= 1.48D-13 1.38D-07.
      2 vectors produced by pass  7 Test12= 6.98D-15 3.33D-09 XBig12= 4.73D-16 5.27D-09.
 InvSVY:  IOpt=1 It=  1 EMax= 1.55D-15
 Solved reduced A of dimension   155 with    24 vectors.
 End of Minotr F.D. properties file   721 does not exist.
 End of Minotr F.D. properties file   722 does not exist.
 End of Minotr F.D. properties file   788 does not exist.
 Leave Link 1002 at Sat Aug 10 04:23:12 2019, MaxMem=   671088640 cpu:             467.0 elap:              23.4
 (Enter /shared/centos7/gaussian/g16/l601.exe)
 Copying SCF densities to generalized density rwf, IOpCl= 0 IROHF=0.

 **********************************************************************

            Population analysis using the SCF density.

 **********************************************************************

 Orbital symmetries:
       Occupied  (A) (A) (A) (A) (A) (A) (A) (A) (A) (A) (A) (A)
                 (A)
       Virtual   (A) (A) (A) (A) (A) (A) (A) (A) (A) (A) (A) (A)
                 (A) (A) (A) (A) (A) (A) (A) (A) (A) (A) (A) (A)
                 (A) (A) (A) (A) (A) (A) (A) (A) (A) (A) (A) (A)
                 (A) (A) (A) (A) (A) (A) (A) (A) (A) (A) (A) (A)
                 (A) (A) (A) (A) (A) (A) (A) (A) (A) (A) (A) (A)
                 (A) (A) (A) (A) (A) (A) (A) (A) (A) (A) (A) (A)
                 (A) (A) (A) (A) (A) (A) (A) (A) (A) (A) (A) (A)
                 (A) (A) (A) (A) (A) (A) (A) (A) (A) (A) (A) (A)
                 (A) (A) (A) (A) (A) (A) (A) (A) (A) (A) (A) (A)
                 (A) (A) (A) (A) (A) (A) (A) (A) (A) (A) (A) (A)
                 (A) (A) (A) (A) (A) (A) (A) (A) (A) (A) (A) (A)
                 (A) (A) (A) (A) (A) (A) (A) (A) (A) (A) (A) (A)
                 (A) (A) (A) (A) (A) (A) (A) (A) (A) (A) (A) (A)
                 (A) (A) (A) (A) (A)
 The electronic state is 1-A.
 Alpha  occ. eigenvalues --  -19.61476 -10.58030 -10.52124  -1.14026  -0.84636
 Alpha  occ. eigenvalues --   -0.69647  -0.59390  -0.54094  -0.47442  -0.44610
 Alpha  occ. eigenvalues --   -0.43228  -0.39846  -0.34650
 Alpha virt. eigenvalues --    0.06502   0.09590   0.12841   0.12975   0.14885
 Alpha virt. eigenvalues --    0.17214   0.21373   0.23207   0.29061   0.30902
 Alpha virt. eigenvalues --    0.35168   0.37226   0.41319   0.42186   0.46702
 Alpha virt. eigenvalues --    0.49469   0.50743   0.52835   0.52960   0.53366
 Alpha virt. eigenvalues --    0.59409   0.60142   0.61401   0.65263   0.69852
 Alpha virt. eigenvalues --    0.73065   0.78524   0.80259   0.84334   0.88363
 Alpha virt. eigenvalues --    0.93785   0.98982   1.00996   1.07385   1.09309
 Alpha virt. eigenvalues --    1.10144   1.11280   1.12391   1.13539   1.17989
 Alpha virt. eigenvalues --    1.20516   1.21781   1.24765   1.27577   1.31847
 Alpha virt. eigenvalues --    1.33885   1.37414   1.41365   1.41831   1.48278
 Alpha virt. eigenvalues --    1.51980   1.56419   1.60103   1.67954   1.87958
 Alpha virt. eigenvalues --    1.98184   2.03000   2.09340   2.14650   2.21802
 Alpha virt. eigenvalues --    2.29921   2.32495   2.40622   2.41230   2.42286
 Alpha virt. eigenvalues --    2.49671   2.60028   2.60361   2.68466   2.76853
 Alpha virt. eigenvalues --    2.81370   2.83004   2.87608   2.87659   2.95027
 Alpha virt. eigenvalues --    2.95631   2.96946   3.00974   3.02034   3.04043
 Alpha virt. eigenvalues --    3.06799   3.09656   3.11998   3.13812   3.13975
 Alpha virt. eigenvalues --    3.21740   3.24109   3.30436   3.38578   3.39024
 Alpha virt. eigenvalues --    3.40408   3.42132   3.43068   3.46956   3.48008
 Alpha virt. eigenvalues --    3.51081   3.54566   3.60367   3.67658   3.69003
 Alpha virt. eigenvalues --    3.76315   3.76716   3.80050   3.80810   3.84519
 Alpha virt. eigenvalues --    3.85221   3.88116   3.88539   3.95071   3.99024
 Alpha virt. eigenvalues --    4.01536   4.01669   4.04029   4.06963   4.09004
 Alpha virt. eigenvalues --    4.09057   4.19490   4.21629   4.28605   4.29472
 Alpha virt. eigenvalues --    4.32507   4.35739   4.44026   4.48602   4.65299
 Alpha virt. eigenvalues --    4.69058   4.69711   4.78262   4.79473   4.81995
 Alpha virt. eigenvalues --    4.85159   4.91481   4.93449   4.99819   5.16106
 Alpha virt. eigenvalues --    5.18090   5.26079   5.27282   5.28907   5.32236
 Alpha virt. eigenvalues --    5.38724   5.40790   5.45486   5.54520   5.70651
 Alpha virt. eigenvalues --    5.78990   5.84088   5.84504   5.98114   6.13642
 Alpha virt. eigenvalues --    6.49167   6.65303   6.69473   6.71817   6.88080
 Alpha virt. eigenvalues --    6.96515   7.14465   7.39804  11.84392  12.53969
 Alpha virt. eigenvalues --   13.47077
          Condensed to atoms (all electrons):
               1          2          3          4          5          6
     1  O    7.871793   0.337655  -0.048258  -0.052572  -0.052588   0.003312
     2  C    0.337655   4.683895   0.310227   0.403358   0.403367  -0.032265
     3  C   -0.048258   0.310227   4.960451  -0.041988  -0.042124   0.395730
     4  H   -0.052572   0.403358  -0.041988   0.715221  -0.086308  -0.014249
     5  H   -0.052588   0.403367  -0.042124  -0.086308   0.715330   0.011047
     6  H    0.003312  -0.032265   0.395730  -0.014249   0.011047   0.592487
     7  H    0.003954  -0.032366   0.381181  -0.000433  -0.000434  -0.032375
     8  H    0.003311  -0.032258   0.395706   0.011047  -0.014220  -0.038487
     9  H    0.322301  -0.035525   0.009071  -0.006770  -0.006737  -0.000067
               7          8          9
     1  O    0.003954   0.003311   0.322301
     2  C   -0.032366  -0.032258  -0.035525
     3  C    0.381181   0.395706   0.009071
     4  H   -0.000433   0.011047  -0.006770
     5  H   -0.000434  -0.014220  -0.006737
     6  H   -0.032375  -0.038487  -0.000067
     7  H    0.618737  -0.032377  -0.000915
     8  H   -0.032377   0.592434  -0.000068
     9  H   -0.000915  -0.000068   0.473884
 Mulliken charges:
               1
     1  O   -0.388908
     2  C   -0.006087
     3  C   -0.319995
     4  H    0.072694
     5  H    0.072667
     6  H    0.114865
     7  H    0.095026
     8  H    0.114912
     9  H    0.244826
 Sum of Mulliken charges =  -0.00000
 Mulliken charges with hydrogens summed into heavy atoms:
               1
     1  O   -0.144082
     2  C    0.139273
     3  C    0.004809
 APT charges:
               1
     1  O   -0.675041
     2  C   -0.502281
     3  C   -0.919765
     4  H    0.285924
     5  H    0.285860
     6  H    0.299871
     7  H    0.344303
     8  H    0.299773
     9  H    0.581356
 Sum of APT charges =  -0.00000
 APT charges with hydrogens summed into heavy atoms:
               1
     1  O   -0.093685
     2  C    0.069502
     3  C    0.024182
 Electronic spatial extent (au):  <R**2>=            192.4803
 Charge=             -0.0000 electrons
 Dipole moment (field-independent basis, Debye):
    X=              0.2125    Y=              1.5538    Z=              0.0016  Tot=              1.5682
 Quadrupole moment (field-independent basis, Debye-Ang):
   XX=            -17.0688   YY=            -20.6930   ZZ=            -20.1713
   XY=              1.8501   XZ=              0.0044   YZ=              0.0007
 Traceless Quadrupole moment (field-independent basis, Debye-Ang):
   XX=              2.2422   YY=             -1.3820   ZZ=             -0.8602
   XY=              1.8501   XZ=              0.0044   YZ=              0.0007
 Octapole moment (field-independent basis, Debye-Ang**2):
  XXX=             15.9284  YYY=             -0.6811  ZZZ=              0.0028  XYY=              0.7989
  XXY=              2.5866  XXZ=              0.0064  XZZ=              1.3822  YZZ=             -0.3125
  YYZ=             -0.0014  XYZ=              0.0013
 Hexadecapole moment (field-independent basis, Debye-Ang**3):
 XXXX=           -132.7727 YYYY=            -58.8435 ZZZZ=            -33.8209 XXXY=             -0.3374
 XXXZ=              0.0220 YYYX=             -1.0165 YYYZ=              0.0052 ZZZX=             -0.0016
 ZZZY=             -0.0007 XXYY=            -36.2521 XXZZ=            -33.1602 YYZZ=            -14.1158
 XXYZ=             -0.0021 YYXZ=              0.0034 ZZXY=              0.8344
 N-N= 8.209748066858D+01 E-N=-5.265687497268D+02  KE= 1.541802136414D+02
  Exact polarizability:   0.000   0.000   0.000   0.000   0.000   0.000
 Approx polarizability:  35.014  -0.072  33.752   0.004   0.001  31.563
 No NMR shielding tensors so no spin-rotation constants.
 Leave Link  601 at Sat Aug 10 04:23:13 2019, MaxMem=   671088640 cpu:               4.1 elap:               0.2
 (Enter /shared/centos7/gaussian/g16/l701.exe)
 ... and contract with generalized density number  0.
 Compute integral second derivatives.
 Leave Link  701 at Sat Aug 10 04:23:13 2019, MaxMem=   671088640 cpu:               6.4 elap:               0.3
 (Enter /shared/centos7/gaussian/g16/l702.exe)
 L702 exits ... SP integral derivatives will be done elsewhere.
 Leave Link  702 at Sat Aug 10 04:23:13 2019, MaxMem=   671088640 cpu:               0.6 elap:               0.1
 (Enter /shared/centos7/gaussian/g16/l703.exe)
 Integral derivatives from FoFJK, PRISM(SPDF).
 Compute integral second derivatives, UseDBF=F ICtDFT=           0.
 Calling FoFJK, ICntrl=    100147 FMM=F ISym2X=0 I1Cent= 0 IOpClX= 0 NMat=1 NMatS=1 NMatT=0.
 FoFJK:  IHMeth= 1 ICntrl=  100147 DoSepK=F KAlg= 0 I1Cent=           0 FoldK=F
 IRaf=         0 NMat=       1 IRICut=       1 DoRegI=T DoRafI=F ISym2E= 0 IDoP0=0 IntGTp=1.
 FoFCou: FMM=F IPFlag=           0 FMFlag=      100000 FMFlg1=         800
         NFxFlg=           0 DoJE=F BraDBF=F KetDBF=F FulRan=T
         wScrn=  0.000000 ICntrl=    100147 IOpCl=  0 I1Cent=           0 NGrid=           0
         NMat0=    1 NMatS0=      1 NMatT0=    0 NMatD0=    1 NMtDS0=    0 NMtDT0=    0
 Symmetry not used in FoFCou.
 Leave Link  703 at Sat Aug 10 04:23:52 2019, MaxMem=   671088640 cpu:             773.1 elap:              38.7
 (Enter /shared/centos7/gaussian/g16/l716.exe)
 Dipole        = 8.36047146D-02 6.11296012D-01 6.22387518D-04
 Polarizability= 0.00000000D+00 0.00000000D+00 0.00000000D+00
                 0.00000000D+00 0.00000000D+00 0.00000000D+00
 ***** Axes restored to original set *****
 -------------------------------------------------------------------
 Center     Atomic                   Forces (Hartrees/Bohr)
 Number     Number              X              Y              Z
 -------------------------------------------------------------------
      1        8           0.000056696   -0.000034342    0.000008188
      2        6          -0.000055034   -0.000089560   -0.000029257
      3        6          -0.000010412    0.000026682    0.000034357
      4        1          -0.000002805    0.000023992    0.000013591
      5        1          -0.000011899    0.000046699   -0.000010900
      6        1           0.000014022   -0.000003585    0.000011690
      7        1           0.000018908   -0.000004934    0.000007261
      8        1           0.000005055    0.000007570   -0.000032617
      9        1          -0.000014532    0.000027479   -0.000002313
 -------------------------------------------------------------------
 Cartesian Forces:  Max     0.000089560 RMS     0.000030108
 Force constants in Cartesian coordinates: 
                1             2             3             4             5 
      1  0.345106D+00
      2 -0.517463D-01  0.660358D+00
      3 -0.411023D-01 -0.244008D-01  0.527863D-01
      4 -0.192944D+00 -0.931333D-01  0.236184D-01  0.550099D+00
      5 -0.518471D-01 -0.148607D+00  0.119385D-01 -0.331824D-01  0.501792D+00
      6  0.214762D-01  0.179901D-01 -0.685663D-01  0.903421D-02  0.101078D-01
      7  0.966946D-02 -0.381654D-01  0.116671D-02 -0.106813D+00  0.675054D-01
      8  0.279333D-02 -0.384515D-01  0.181738D-02  0.509549D-01 -0.186529D+00
      9 -0.995417D-03  0.777001D-02  0.358245D-02  0.751224D-03 -0.431872D-02
     10 -0.226468D-01 -0.746686D-02  0.265945D-01 -0.937435D-01  0.221630D-01
     11 -0.216144D-01 -0.137958D-02  0.233713D-01  0.248231D-01 -0.613878D-01
     12  0.699004D-02  0.665324D-02  0.242958D-02  0.896711D-01 -0.453343D-01
     13 -0.292230D-01 -0.111739D-01 -0.157318D-01 -0.155075D+00  0.206885D-01
     14 -0.273646D-01 -0.394214D-02 -0.151158D-01  0.229200D-01 -0.544488D-01
     15  0.547006D-02 -0.281804D-02  0.115767D-01 -0.121396D+00  0.213851D-01
     16  0.168866D-02 -0.604943D-03  0.874919D-03 -0.115324D-01  0.111214D-02
     17 -0.887945D-03  0.315479D-02 -0.107883D-02  0.241006D-01 -0.473899D-02
     18  0.440985D-03  0.416435D-03 -0.164730D-03  0.876425D-03 -0.118907D-03
     19 -0.840594D-04  0.344254D-02 -0.510505D-04  0.101711D-01  0.802636D-02
     20  0.349565D-02 -0.819005D-02 -0.374747D-04 -0.260615D-01 -0.140997D-01
     21 -0.533050D-04 -0.189983D-04  0.817058D-03 -0.490127D-03 -0.559739D-03
     22  0.120183D-02 -0.862353D-03 -0.121149D-02 -0.817210D-02  0.242626D-02
     23 -0.658280D-03  0.321819D-02  0.964931D-03  0.159369D-01 -0.767088D-02
     24 -0.769984D-03 -0.534258D-03  0.265627D-03  0.375848D-04  0.308514D-03
     25 -0.112768D+00  0.199710D+00  0.584224D-02  0.801095D-02 -0.368922D-01
     26  0.147830D+00 -0.466161D+00  0.254081D-02  0.136418D-01 -0.243103D-01
     27  0.854374D-02 -0.505762D-02 -0.272670D-02 -0.210263D-02  0.659183D-02
                6             7             8             9            10 
      6  0.598568D+00
      7 -0.109141D-03  0.575549D+00
      8 -0.191479D-02  0.360087D-01  0.512615D+00
      9 -0.829245D-01 -0.875890D-03 -0.154686D-02  0.582774D+00
     10  0.857877D-01 -0.456520D-02  0.438985D-02  0.113528D-01  0.109626D+00
     11 -0.457357D-01  0.141576D-01 -0.713181D-02 -0.296465D-01 -0.181942D-01
     12 -0.249185D+00 -0.115143D-02 -0.165722D-03  0.118074D-02 -0.105131D+00
     13 -0.117265D+00 -0.728015D-02  0.326808D-02 -0.973380D-02  0.107447D-01
     14  0.210670D-01  0.222328D-01 -0.425983D-02  0.250887D-01 -0.365152D-02
     15 -0.194758D+00  0.125225D-02 -0.222544D-03  0.992091D-03 -0.184478D-01
     16 -0.105785D-01 -0.170679D+00  0.171144D-01 -0.133544D+00  0.384317D-04
     17  0.255983D-01  0.148361D-01 -0.485776D-01  0.163967D-01 -0.795569D-03
     18  0.721485D-03 -0.134212D+00  0.178299D-01 -0.194545D+00  0.360640D-03
     19 -0.228074D-02 -0.191014D+00 -0.132862D+00  0.277741D-01  0.368032D-03
     20  0.435861D-02 -0.130072D+00 -0.170410D+00  0.252309D-01  0.197761D-03
     21 -0.260083D-02  0.276218D-01  0.256290D-01 -0.518592D-01 -0.147275D-03
     22  0.134051D-01 -0.100494D+00  0.214583D-01  0.104498D+00 -0.226687D-04
     23 -0.306638D-01  0.197493D-01 -0.544710D-01 -0.400161D-01  0.219798D-02
     24  0.293644D-03  0.105363D+00 -0.420234D-01 -0.258835D+00  0.145329D-03
     25  0.530724D-03 -0.437304D-02 -0.312591D-02  0.772792D-03  0.200646D-03
     26 -0.807530D-03 -0.625228D-02 -0.278444D-02  0.104193D-02  0.115956D-02
     27 -0.154885D-02  0.943920D-03  0.596963D-03 -0.365462D-03 -0.515057D-03
               11            12            13            14            15 
     11  0.691000D-01
     12  0.455714D-01  0.264849D+00
     13 -0.645810D-03  0.898948D-02  0.180272D+00
     14  0.281512D-02 -0.636731D-02 -0.149839D-01  0.620537D-01
     15  0.429840D-02 -0.218349D-01  0.133261D+00 -0.227010D-01  0.201248D+00
     16 -0.445945D-03  0.256376D-03  0.158796D-03  0.274224D-02  0.726660D-03
     17  0.150413D-02 -0.240676D-03  0.211931D-02 -0.609241D-02 -0.176459D-03
     18  0.667574D-03  0.882394D-03  0.815235D-04 -0.562594D-03  0.156359D-02
     19 -0.814310D-03  0.167273D-03  0.343794D-03 -0.871743D-03 -0.194091D-03
     20  0.857081D-03 -0.846698D-03  0.420291D-03  0.927042D-03  0.659061D-03
     21  0.212392D-03 -0.274751D-04 -0.150319D-05 -0.658557D-04 -0.592723D-04
     22  0.282741D-02 -0.571831D-03 -0.425344D-04 -0.632134D-03  0.799000D-04
     23 -0.600667D-02  0.362791D-03 -0.721786D-03  0.146839D-02  0.405645D-03
     24  0.562794D-03  0.165505D-02  0.000000D+00 -0.566695D-03  0.989169D-03
     25 -0.933949D-04  0.779802D-03  0.101173D-03 -0.391014D-03 -0.751834D-03
     26  0.162952D-02  0.367323D-03  0.102918D-02  0.147895D-02 -0.830145D-03
     27  0.698351D-03  0.512803D-04  0.400069D-03 -0.776526D-03  0.282306D-03
               16            17            18            19            20 
     16  0.183849D+00
     17 -0.213011D-01  0.524261D-01
     18  0.147319D+00 -0.191853D-01  0.206787D+00
     19 -0.146809D-01 -0.139193D-01  0.470065D-02  0.204078D+00
     20  0.328740D-02  0.243171D-02 -0.145848D-02  0.144713D+00  0.185119D+00
     21 -0.162694D-01 -0.174659D-01  0.417466D-02 -0.304126D-01 -0.281677D-01
     22  0.111643D-01 -0.424133D-02 -0.198436D-01 -0.998488D-02  0.542369D-02
     23 -0.172874D-02 -0.588593D-03  0.250270D-02 -0.862997D-02  0.451030D-02
     24  0.111190D-01 -0.369211D-02 -0.195098D-01  0.356913D-03 -0.438991D-04
     25 -0.685091D-05  0.891838D-04  0.275588D-03  0.802735D-03 -0.140456D-02
     26 -0.175506D-03  0.480884D-03 -0.913782D-04  0.914670D-03 -0.114596D-02
     27  0.955240D-04 -0.155760D-03  0.909291D-04 -0.604398D-04  0.305704D-03
               21            22            23            24            25 
     21  0.514395D-01
     22  0.196894D-01  0.106450D+00
     23  0.204684D-01 -0.262431D-01  0.590335D-01
     24 -0.260093D-02 -0.116019D+00  0.458863D-01  0.277580D+00
     25  0.628885D-04 -0.993408D-04  0.977551D-04 -0.234027D-03  0.108132D+00
     26 -0.316595D-04 -0.156739D-03  0.506793D-03  0.102730D-03 -0.157990D+00
     27  0.716464D-03 -0.269590D-04  0.891264D-04  0.161904D-03 -0.727817D-02
               26            27 
     26  0.490306D+00
     27 -0.229207D-02  0.333812D-02
 FormGI is forming the generalized inverse of G from B-inverse, IUseBI=4.
 Force constants in internal coordinates: 
                1             2             3             4             5 
      1  0.365940D+00
      2 -0.111345D-02  0.547004D+00
      3  0.178835D-01 -0.394340D-03  0.306116D+00
      4  0.163872D-01 -0.121414D-03  0.641964D-02  0.327105D+00
      5  0.164048D-01 -0.125007D-03  0.642852D-02  0.491502D-02  0.327083D+00
      6  0.803279D-03 -0.286284D-03  0.518327D-02  0.582333D-03 -0.977662D-03
      7  0.530394D-03 -0.305894D-04  0.357668D-02  0.590522D-03  0.593179D-03
      8  0.798881D-03 -0.290594D-03  0.517741D-02 -0.977145D-03  0.580047D-03
      9  0.449110D-01  0.157438D-01  0.487185D-02  0.907888D-03  0.911537D-03
     10  0.209690D-01  0.851482D-02  0.166518D-01 -0.297475D-02 -0.297334D-02
     11  0.108534D-01 -0.385315D-02 -0.136060D-01  0.230550D-03  0.480462D-03
     12  0.108728D-01 -0.384306D-02 -0.136012D-01  0.477265D-03  0.226285D-03
     13 -0.212013D-01 -0.871567D-03  0.970978D-02  0.364073D-02 -0.586948D-02
     14 -0.211981D-01 -0.871227D-03  0.972776D-02 -0.586723D-02  0.364619D-02
     15 -0.100681D-02  0.818769D-03 -0.868907D-02  0.444336D-02  0.444121D-02
     16 -0.393543D-02 -0.690619D-03  0.154666D-01 -0.152181D-02  0.328275D-02
     17  0.950785D-02  0.143868D-02  0.105101D-01  0.128425D-03  0.120920D-03
     18 -0.394400D-02 -0.691618D-03  0.154505D-01  0.327851D-02 -0.151777D-02
     19 -0.179618D-02 -0.203427D-03 -0.136953D-01  0.102354D-03 -0.134072D-02
     20  0.185110D-02  0.336429D-03 -0.152682D-01 -0.697989D-03 -0.701245D-03
     21 -0.179088D-02 -0.200682D-03 -0.136916D-01 -0.134200D-02  0.103294D-03
     22 -0.302568D-05  0.989459D-05  0.521513D-05 -0.353546D-02  0.354127D-02
     23 -0.640665D-02  0.198574D-02  0.142251D-01 -0.810424D-03 -0.519607D-02
     24  0.639253D-02 -0.197073D-02 -0.142363D-01  0.519993D-02  0.810898D-03
     25 -0.133135D-02 -0.227905D-03  0.239436D-03  0.214398D-02 -0.190460D-02
     26 -0.763892D-05 -0.423092D-05 -0.695282D-05  0.136334D-02 -0.136207D-02
     27  0.131651D-02  0.222133D-03 -0.261142D-03  0.190606D-02 -0.214362D-02
     28 -0.149386D-01 -0.254851D-03  0.865405D-03  0.155098D-02  0.278043D-02
     29 -0.136148D-01 -0.311769D-04  0.619016D-03  0.770330D-03  0.332296D-02
     30 -0.122907D-01  0.195187D-03  0.364827D-03  0.131305D-02  0.254141D-02
     31  0.122942D-01 -0.191980D-03 -0.379605D-03 -0.254061D-02 -0.131247D-02
     32  0.136179D-01  0.316943D-04 -0.625994D-03 -0.332126D-02 -0.769945D-03
     33  0.149420D-01  0.258058D-03 -0.880183D-03 -0.277853D-02 -0.155149D-02
                6             7             8             9            10 
      6  0.345847D+00
      7  0.222904D-02  0.345466D+00
      8  0.249169D-02  0.223001D-02  0.345876D+00
      9  0.115625D-03  0.745382D-03  0.115275D-03  0.173006D+00
     10 -0.383675D-02  0.648457D-02 -0.385219D-02  0.216348D-01  0.167784D+00
     11  0.830653D-03 -0.197271D-02  0.442774D-03 -0.749582D-02 -0.599711D-01
     12  0.436505D-03 -0.196964D-02  0.833134D-03 -0.748121D-02 -0.599231D-01
     13 -0.260041D-03 -0.158512D-02  0.388358D-02 -0.505016D-02 -0.385651D-01
     14  0.388294D-02 -0.159211D-02 -0.251992D-03 -0.504869D-02 -0.385514D-01
     15 -0.963232D-03  0.532215D-03 -0.965485D-03  0.309055D-02  0.264965D-01
     16  0.262848D-02 -0.637517D-02 -0.595516D-02 -0.167153D-02 -0.130254D-01
     17 -0.558448D-02  0.426901D-02 -0.558454D-02  0.572760D-02  0.249296D-01
     18 -0.595409D-02 -0.637644D-02  0.263869D-02 -0.167263D-02 -0.130506D-01
     19  0.406820D-02  0.410980D-02  0.301722D-03 -0.166860D-02 -0.358067D-02
     20  0.485216D-02  0.427525D-03  0.484684D-02  0.851988D-03  0.817304D-02
     21  0.300456D-03  0.410918D-02  0.406372D-02 -0.166726D-02 -0.356658D-02
     22  0.168643D-02 -0.395616D-05 -0.168359D-02  0.191729D-05 -0.467027D-05
     23 -0.534732D-03  0.942948D-03  0.915691D-03  0.291311D-02  0.222212D-01
     24 -0.918508D-03 -0.942777D-03  0.534776D-03 -0.291541D-02 -0.222430D-01
     25 -0.427486D-03 -0.372756D-02  0.433831D-02 -0.524437D-03 -0.311894D-02
     26  0.276278D-02  0.219522D-05 -0.276383D-02 -0.380556D-05 -0.189185D-05
     27 -0.433894D-02  0.373026D-02  0.427602D-03  0.517387D-03  0.311493D-02
     28  0.106857D-02 -0.437619D-02  0.388292D-02 -0.171723D-02 -0.104867D-01
     29  0.425884D-02 -0.646440D-03 -0.321922D-02 -0.119660D-02 -0.736963D-02
     30 -0.284289D-02  0.308162D-02 -0.277899D-04 -0.675405D-03 -0.425281D-02
     31  0.299669D-04 -0.308187D-02  0.284262D-02  0.678562D-03  0.425022D-02
     32  0.322024D-02  0.647885D-03 -0.425952D-02  0.119919D-02  0.736726D-02
     33 -0.388148D-02  0.437595D-02 -0.106809D-02  0.172039D-02  0.104841D-01
               11            12            13            14            15 
     11  0.611186D-01
     12  0.821068D-02  0.610890D-01
     13 -0.235030D-01  0.210120D-01  0.730250D-01
     14  0.210169D-01 -0.235161D-01 -0.855944D-02  0.730316D-01
     15 -0.631422D-02 -0.630903D-02 -0.220204D-01 -0.220310D-01  0.290782D-01
     16  0.532647D-02 -0.736126D-03 -0.410430D-02  0.158924D-01 -0.305613D-02
     17 -0.612746D-02 -0.612082D-02 -0.870457D-02 -0.871185D-02  0.425051D-02
     18 -0.729861D-03  0.532868D-02  0.158972D-01 -0.409277D-02 -0.305674D-02
     19  0.654716D-03  0.209715D-02  0.367929D-02 -0.269087D-02 -0.114781D-03
     20 -0.113973D-02 -0.113699D-02 -0.410372D-02 -0.410790D-02  0.211702D-02
     21  0.209684D-02  0.649354D-03 -0.269720D-02  0.367660D-02 -0.113837D-03
     22  0.743351D-02 -0.742883D-02 -0.244010D-01  0.244073D-01 -0.438035D-05
     23 -0.226360D-01 -0.143165D-01  0.268370D-01  0.229984D-02 -0.140819D-01
     24  0.143303D-01  0.226391D-01 -0.229029D-02 -0.268478D-01  0.140864D-01
     25  0.131871D-01 -0.117168D-01  0.229928D-04  0.229022D-02 -0.604297D-03
     26  0.135236D-01 -0.135241D-01 -0.366878D-02  0.366650D-02  0.190146D-05
     27  0.117164D-01 -0.131884D-01 -0.229304D-02 -0.245815D-04  0.608705D-03
     28 -0.105266D-01  0.271937D-02  0.937611D-02  0.541195D-02  0.374683D-02
     29 -0.101900D-01  0.912023D-03  0.568434D-02  0.678824D-02  0.435302D-02
     30 -0.119973D-01  0.124775D-02  0.706008D-02  0.309715D-02  0.495983D-02
     31 -0.125135D-02  0.120086D-01 -0.309355D-02 -0.706569D-02 -0.496035D-02
     32 -0.914772D-03  0.102013D-01 -0.678532D-02 -0.568941D-02 -0.435416D-02
     33 -0.272204D-02  0.105370D-01 -0.540958D-02 -0.938050D-02 -0.374735D-02
               16            17            18            19            20 
     16  0.103216D+00
     17 -0.188898D-01  0.996658D-01
     18 -0.198257D-01 -0.188781D-01  0.103186D+00
     19 -0.396141D-01 -0.384385D-01  0.128209D-01  0.494538D-01
     20 -0.394532D-01  0.127223D-01 -0.394386D-01  0.899012D-02  0.501453D-01
     21  0.128182D-01 -0.384304D-01 -0.396066D-01  0.877039D-02  0.898637D-02
     22  0.701030D-02 -0.455721D-05 -0.700574D-02 -0.246144D-02 -0.176600D-05
     23 -0.298548D-02  0.130730D-02  0.383085D-02  0.182772D-03 -0.585290D-03
     24 -0.383446D-02 -0.130620D-02  0.298682D-02  0.181988D-02  0.587027D-03
     25 -0.300435D-02 -0.396694D-02  0.648262D-02 -0.467673D-02  0.627316D-02
     26  0.259722D-02 -0.394087D-05 -0.259608D-02  0.647427D-02  0.000000D+00
     27 -0.648887D-02  0.396928D-02  0.299695D-02  0.996573D-03 -0.626749D-02
     28  0.919001D-03 -0.669850D-02  0.604178D-02 -0.543634D-02  0.505496D-02
     29  0.652057D-02 -0.273550D-02 -0.303692D-02  0.571467D-02 -0.121882D-02
     30 -0.256552D-02  0.123772D-02  0.255611D-02  0.236966D-03 -0.748569D-02
     31 -0.255685D-02 -0.124089D-02  0.256084D-02 -0.590072D-02  0.748942D-02
     32  0.304472D-02  0.272211D-02 -0.651786D-02  0.525029D-02  0.121563D-02
     33 -0.604138D-02  0.669533D-02 -0.924832D-03 -0.227411D-03 -0.505123D-02
               21            22            23            24            25 
     21  0.494424D-01
     22  0.246283D-02  0.177537D-01
     23 -0.181867D-02 -0.765656D-02  0.256235D-01
     24 -0.184107D-03 -0.765929D-02 -0.158819D-01  0.256404D-01
     25 -0.994328D-03 -0.422183D-02  0.163566D-02  0.183137D-02  0.168916D-01
     26 -0.647126D-02 -0.273128D-02  0.762003D-03  0.763558D-03  0.653968D-02
     27  0.468131D-02 -0.422241D-02  0.182924D-02  0.163698D-02  0.696345D-02
     28  0.227622D-03  0.106934D-02 -0.232055D-03 -0.601247D-03  0.276186D-02
     29 -0.524931D-02  0.255988D-02 -0.110571D-02 -0.166906D-02 -0.759002D-02
     30  0.590326D-02  0.106875D-02 -0.384735D-04 -0.795640D-03 -0.716626D-02
     31 -0.233718D-03  0.106572D-02 -0.797477D-03 -0.354660D-04  0.208558D-02
     32 -0.571065D-02  0.255627D-02 -0.167114D-02 -0.110328D-02 -0.826630D-02
     33  0.544192D-02  0.106514D-02 -0.603896D-03 -0.229859D-03 -0.784254D-02
               26            27            28            29            30 
     26  0.163104D-01
     27  0.653978D-02  0.168930D-01
     28 -0.774368D-02 -0.784229D-02  0.164846D-01
     29  0.202707D-02 -0.826596D-02  0.597906D-02  0.155962D-01
     30 -0.774359D-02  0.208724D-02  0.588045D-02  0.530312D-02  0.151340D-01
     31 -0.774539D-02 -0.716920D-02  0.281593D-02 -0.701504D-02 -0.643885D-02
     32  0.202536D-02 -0.759287D-02 -0.768961D-02  0.260206D-02 -0.701618D-02
     33 -0.774530D-02  0.276033D-02 -0.778822D-02 -0.769098D-02  0.281465D-02
               31            32            33 
     31  0.151379D-01
     32  0.530697D-02  0.155986D-01
     33  0.588316D-02  0.598040D-02  0.164860D-01
 Leave Link  716 at Sat Aug 10 04:23:52 2019, MaxMem=   671088640 cpu:               0.6 elap:               0.0
 (Enter /shared/centos7/gaussian/g16/l103.exe)

 GradGradGradGradGradGradGradGradGradGradGradGradGradGradGradGradGradGrad
 Berny optimization.
 Red2BG is reusing G-inverse.
 Internal  Forces:  Max     0.000074579 RMS     0.000023722
 Search for a local minimum.
 Step number   1 out of a maximum of   43 on scan point     1 out of    37
 All quantities printed in internal units (Hartrees-Bohrs-Radians)
 RMS Force = .23682D-04 SwitMx=.10000D-02 MixMth= 2
 Mixed Optimization -- En-DIIS/RFO-DIIS
 Second derivative matrix not updated -- analytic derivatives used.
 ITU=  0
     Eigenvalues ---    0.01547   0.04279   0.04457   0.05881   0.07491
     Eigenvalues ---    0.11971   0.12341   0.13163   0.15899   0.16360
     Eigenvalues ---    0.24503   0.31275   0.32305   0.32583   0.34426
     Eigenvalues ---    0.34518   0.35184   0.39953   0.548121000.00000
     Eigenvalues --- 1000.000001000.000001000.000001000.000001000.00000
     Eigenvalues --- 1000.000001000.000001000.000001000.000001000.00000
     Eigenvalues --- 1000.000001000.000001000.00000
 RFO step:  Lambda=-1.35503679D-07 EMin= 1.54667198D-02
 Linear search not attempted -- first point.
 Iteration  1 RMS(Cart)=  0.00037602 RMS(Int)=  0.00000010
 Iteration  2 RMS(Cart)=  0.00000010 RMS(Int)=  0.00000004
 Iteration  1 RMS(Cart)=  0.00000001 RMS(Int)=  0.00000001
 ITry= 1 IFail=0 DXMaxC= 7.99D-04 DCOld= 1.00D+10 DXMaxT= 3.00D-01 DXLimC= 3.00D+00 Rises=F
 Variable       Old X    -DE/DX   Delta X   Delta X   Delta X     New X
                                 (Linear)    (Quad)   (Total)
    R1        2.67907   0.00003   0.00000   0.00018   0.00018   2.67925
    R2        1.81209   0.00003   0.00000   0.00006   0.00006   1.81216
    R3        2.85632  -0.00001   0.00000  -0.00008  -0.00008   2.85625
    R4        2.06908   0.00002   0.00000   0.00005   0.00005   2.06914
    R5        2.06910   0.00002   0.00000   0.00004   0.00004   2.06914
    R6        2.05796   0.00002   0.00000   0.00005   0.00005   2.05802
    R7        2.05879  -0.00001   0.00000  -0.00004  -0.00004   2.05875
    R8        2.05793   0.00003   0.00000   0.00009   0.00009   2.05802
    A1        1.90308  -0.00001   0.00000  -0.00005  -0.00005   1.90303
    A2        1.87899  -0.00007   0.00000  -0.00044  -0.00044   1.87855
    A3        1.93217   0.00001   0.00000  -0.00018  -0.00018   1.93199
    A4        1.93211   0.00000   0.00000  -0.00007  -0.00007   1.93204
    A5        1.92036   0.00003   0.00000   0.00022   0.00022   1.92057
    A6        1.92005   0.00006   0.00000   0.00054   0.00054   1.92059
    A7        1.88055  -0.00002   0.00000  -0.00005  -0.00005   1.88049
    A8        1.92164   0.00000   0.00000  -0.00016  -0.00016   1.92148
    A9        1.93189   0.00003   0.00000   0.00043   0.00043   1.93232
   A10        1.92162  -0.00003   0.00000  -0.00025  -0.00025   1.92137
   A11        1.89850  -0.00001   0.00000  -0.00004  -0.00004   1.89846
   A12        1.89102   0.00001   0.00000  -0.00010  -0.00010   1.89092
   A13        1.89841   0.00000   0.00000   0.00012   0.00012   1.89853
    D1       -3.14046   0.00001   0.00000   0.00034   0.00034  -3.14012
    D2       -1.04080   0.00000   0.00000   0.00023   0.00023  -1.04057
    D3        1.04347  -0.00002   0.00000   0.00000  -0.00000   1.04347
    D4        1.04337  -0.00001   0.00000  -0.00033  -0.00033   1.04304
    D5       -3.14011  -0.00001   0.00000  -0.00021  -0.00021  -3.14032
    D6       -1.04052  -0.00001   0.00000   0.00004   0.00004  -1.04048
    D7       -1.06374   0.00001   0.00000   0.00002   0.00002  -1.06372
    D8        1.03597   0.00002   0.00000   0.00014   0.00014   1.03611
    D9        3.13556   0.00002   0.00000   0.00040   0.00040   3.13596
   D10       -3.13296  -0.00002   0.00000  -0.00038  -0.00038  -3.13333
   D11       -1.03325  -0.00002   0.00000  -0.00026  -0.00026  -1.03350
   D12        1.06634  -0.00001   0.00000   0.00000  -0.00000   1.06634
         Item               Value     Threshold  Converged?
 Maximum Force            0.000076     0.000450     YES
 RMS     Force            0.000024     0.000300     YES
 Maximum Displacement     0.000799     0.001800     YES
 RMS     Displacement     0.000376     0.001200     YES
 Predicted change in Energy=-6.775095D-08
 Optimization completed.
    -- Stationary point found.
                           ----------------------------
                           !   Optimized Parameters   !
                           ! (Angstroms and Degrees)  !
 --------------------------                            --------------------------
 ! Name  Definition              Value          Derivative Info.                !
 --------------------------------------------------------------------------------
 ! R1    R(1,2)                  1.4177         -DE/DX =    0.0                 !
 ! R2    R(1,9)                  0.9589         -DE/DX =    0.0                 !
 ! R3    R(2,3)                  1.5115         -DE/DX =    0.0                 !
 ! R4    R(2,4)                  1.0949         -DE/DX =    0.0                 !
 ! R5    R(2,5)                  1.0949         -DE/DX =    0.0                 !
 ! R6    R(3,6)                  1.089          -DE/DX =    0.0                 !
 ! R7    R(3,7)                  1.0895         -DE/DX =    0.0                 !
 ! R8    R(3,8)                  1.089          -DE/DX =    0.0                 !
 ! A1    A(2,1,9)              109.0385         -DE/DX =    0.0                 !
 ! A2    A(1,2,3)              107.6582         -DE/DX =   -0.0001              !
 ! A3    A(1,2,4)              110.7052         -DE/DX =    0.0                 !
 ! A4    A(1,2,5)              110.702          -DE/DX =    0.0                 !
 ! A5    A(3,2,4)              110.0284         -DE/DX =    0.0                 !
 ! A6    A(3,2,5)              110.0105         -DE/DX =    0.0001              !
 ! A7    A(4,2,5)              107.7473         -DE/DX =    0.0                 !
 ! A8    A(2,3,6)              110.102          -DE/DX =    0.0                 !
 ! A9    A(2,3,7)              110.6893         -DE/DX =    0.0                 !
 ! A10   A(2,3,8)              110.1009         -DE/DX =    0.0                 !
 ! A11   A(6,3,7)              108.776          -DE/DX =    0.0                 !
 ! A12   A(6,3,8)              108.3474         -DE/DX =    0.0                 !
 ! A13   A(7,3,8)              108.771          -DE/DX =    0.0                 !
 ! D1    D(9,1,2,3)           -179.9353         -DE/DX =    0.0                 !
 ! D2    D(9,1,2,4)            -59.6332         -DE/DX =    0.0                 !
 ! D3    D(9,1,2,5)             59.7862         -DE/DX =    0.0                 !
 ! D4    D(1,2,3,6)             59.7808         -DE/DX =    0.0                 !
 ! D5    D(1,2,3,7)           -179.9148         -DE/DX =    0.0                 !
 ! D6    D(1,2,3,8)            -59.6174         -DE/DX =    0.0                 !
 ! D7    D(4,2,3,6)            -60.9477         -DE/DX =    0.0                 !
 ! D8    D(4,2,3,7)             59.3567         -DE/DX =    0.0                 !
 ! D9    D(4,2,3,8)            179.6541         -DE/DX =    0.0                 !
 ! D10   D(5,2,3,6)           -179.5051         -DE/DX =    0.0                 !
 ! D11   D(5,2,3,7)            -59.2007         -DE/DX =    0.0                 !
 ! D12   D(5,2,3,8)             61.0966         -DE/DX =    0.0                 !
 --------------------------------------------------------------------------------
 Lowest energy point so far.  Saving SCF results.
 Iteration  1 RMS(Cart)=  0.01997383 RMS(Int)=  0.01991819
 Iteration  2 RMS(Cart)=  0.00134167 RMS(Int)=  0.01989983
 Iteration  3 RMS(Cart)=  0.00006935 RMS(Int)=  0.01989979
 Iteration  4 RMS(Cart)=  0.00000377 RMS(Int)=  0.01989979
 Iteration  5 RMS(Cart)=  0.00000022 RMS(Int)=  0.01989979
 Iteration  1 RMS(Cart)=  0.00894110 RMS(Int)=  0.00850926
 Iteration  2 RMS(Cart)=  0.00393033 RMS(Int)=  0.00946029
 Iteration  3 RMS(Cart)=  0.00173783 RMS(Int)=  0.01038847
 Iteration  4 RMS(Cart)=  0.00079692 RMS(Int)=  0.01087957
 Iteration  5 RMS(Cart)=  0.00038804 RMS(Int)=  0.01112345
 Iteration  6 RMS(Cart)=  0.00020252 RMS(Int)=  0.01124658
 Iteration  7 RMS(Cart)=  0.00011237 RMS(Int)=  0.01131104
 Iteration  8 RMS(Cart)=  0.00006513 RMS(Int)=  0.01134610
 Iteration  9 RMS(Cart)=  0.00003877 RMS(Int)=  0.01136581
 Iteration 10 RMS(Cart)=  0.00002344 RMS(Int)=  0.01137719
 Iteration 11 RMS(Cart)=  0.00001429 RMS(Int)=  0.01138391
 Iteration 12 RMS(Cart)=  0.00000876 RMS(Int)=  0.01138792
 Iteration 13 RMS(Cart)=  0.00000538 RMS(Int)=  0.01139035
 Iteration 14 RMS(Cart)=  0.00000331 RMS(Int)=  0.01139183
 Iteration 15 RMS(Cart)=  0.00000204 RMS(Int)=  0.01139273
 Iteration 16 RMS(Cart)=  0.00000126 RMS(Int)=  0.01139328
 Iteration 17 RMS(Cart)=  0.00000078 RMS(Int)=  0.01139362
 GradGradGradGradGradGradGradGradGradGradGradGradGradGradGradGradGradGrad

 Leave Link  103 at Sat Aug 10 04:23:52 2019, MaxMem=   671088640 cpu:               1.0 elap:               0.1
 (Enter /shared/centos7/gaussian/g16/l202.exe)
                          Input orientation:                          
 ---------------------------------------------------------------------
 Center     Atomic      Atomic             Coordinates (Angstroms)
 Number     Number       Type             X           Y           Z
 ---------------------------------------------------------------------
      1          8           0        1.565507    0.413385   -0.122832
      2          6           0        0.471261   -0.458345    0.107424
      3          6           0        1.050054   -1.854533    0.094170
      4          1           0       -0.012976   -0.277128    1.072620
      5          1           0       -0.263368   -0.442667   -0.704736
      6          1           0        1.796323   -1.955047    0.880956
      7          1           0        0.270602   -2.598913    0.253079
      8          1           0        1.537206   -2.048463   -0.860358
      9          1           0        1.261844    1.320762   -0.056175
 ---------------------------------------------------------------------
                    Distance matrix (angstroms):
                    1          2          3          4          5
     1  O    0.000000
     2  C    1.417852   0.000000
     3  C    2.335859   1.511463   0.000000
     4  H    2.097027   1.094955   2.139066   0.000000
     5  H    2.101481   1.095231   2.087270   1.802524   0.000000
     6  H    2.582700   2.143422   1.089060   2.475017   3.007331
     7  H    3.300307   2.154881   1.089449   2.478457   2.419076
     8  H    2.570105   2.145068   1.089060   3.045832   2.417616
     9  H    0.959160   1.953716   3.185900   2.335079   2.420038
                    6          7          8          9
     6  H    0.000000
     7  H    1.771050   0.000000
     8  H    1.762965   1.773986   0.000000
     9  H    3.448885   4.054880   3.474797   0.000000
 Stoichiometry    C2H6O
 Framework group  C1[X(C2H6O)]
 Deg. of freedom    21
 Full point group                 C1      NOp   1
 RotChk:  IX=2 Diff= 3.32D-02
 Largest Abelian subgroup         C1      NOp   1
 Largest concise Abelian subgroup C1      NOp   1
                         Standard orientation:                         
 ---------------------------------------------------------------------
 Center     Atomic      Atomic             Coordinates (Angstroms)
 Number     Number       Type             X           Y           Z
 ---------------------------------------------------------------------
      1          8           0        1.132919   -0.391960   -0.008074
      2          6           0        0.087138    0.565444   -0.003203
      3          6           0       -1.197349   -0.231120    0.006746
      4          1           0        0.116885    1.214030    0.878488
      5          1           0        0.050750    1.160402   -0.922024
      6          1           0       -1.240780   -0.855286    0.898140
      7          1           0       -2.063462    0.429702   -0.001092
      8          1           0       -1.239980   -0.883023   -0.864607
      9          1           0        1.974503    0.063909    0.054430
 ---------------------------------------------------------------------
 Rotational constants (GHZ):          34.5979751           9.6618228           8.3528955
 Leave Link  202 at Sat Aug 10 04:23:52 2019, MaxMem=   671088640 cpu:               0.2 elap:               0.0
 (Enter /shared/centos7/gaussian/g16/l301.exe)
 Standard basis: CC-pVTZ (5D, 7F)
 Ernie: Thresh=  0.10000D-02 Tol=  0.10000D-05 Strict=F.
 Ernie:  9 primitive shells out of 126 were deleted.
 There are   195 symmetry adapted cartesian basis functions of A   symmetry.
 There are   174 symmetry adapted basis functions of A   symmetry.
   174 basis functions,   258 primitive gaussians,   195 cartesian basis functions
    13 alpha electrons       13 beta electrons
       nuclear repulsion energy        82.3019065087 Hartrees.
 IExCor= 4336 DFT=T Ex+Corr=M062X ExCW=0 ScaHFX=  0.540000
 ScaDFX=  1.000000  1.000000  1.000000  1.000000 ScalE2=  1.000000  1.000000
 IRadAn=      5 IRanWt=     -1 IRanGd=            0 ICorTp=0 IEmpDi=  4
 NAtoms=    9 NActive=    9 NUniq=    9 SFac= 1.00D+00 NAtFMM=   60 NAOKFM=F Big=F
 Integral buffers will be    131072 words long.
 Raffenetti 2 integral format.
 Two-electron integral symmetry is turned on.
 Leave Link  301 at Sat Aug 10 04:23:52 2019, MaxMem=   671088640 cpu:               0.9 elap:               0.1
 (Enter /shared/centos7/gaussian/g16/l302.exe)
 NPDir=0 NMtPBC=     1 NCelOv=     1 NCel=       1 NClECP=     1 NCelD=      1
         NCelK=      1 NCelE2=     1 NClLst=     1 CellRange=     0.0.
 One-electron integrals computed using PRISM.
 One-electron integral symmetry used in STVInt
 NBasis=   174 RedAO= T EigKep=  1.00D-03  NBF=   174
 NBsUse=   174 1.00D-06 EigRej= -1.00D+00 NBFU=   174
 Precomputing XC quadrature grid using
 IXCGrd= 4 IRadAn=           5 IRanWt=          -1 IRanGd=           0 AccXCQ= 0.00D+00.
 Generated NRdTot=       0 NPtTot=           0 NUsed=           0 NTot=          32
 NSgBfM=   195   195   195   195   195 MxSgAt=     9 MxSgA2=     9.
 Leave Link  302 at Sat Aug 10 04:23:52 2019, MaxMem=   671088640 cpu:               5.1 elap:               0.3
 (Enter /shared/centos7/gaussian/g16/l303.exe)
 DipDrv:  MaxL=1.
 Leave Link  303 at Sat Aug 10 04:23:52 2019, MaxMem=   671088640 cpu:               0.7 elap:               0.1
 (Enter /shared/centos7/gaussian/g16/l401.exe)
 Initial guess from the checkpoint file:  "/scratch/harms.n/gauss_scrdir/Gau-48982.chk"
 B after Tr=     0.000000    0.000000    0.000000
         Rot=    0.999968    0.006263   -0.001825   -0.004556 Ang=   0.91 deg.
 Guess basis will be translated and rotated to current coordinates.
 JPrj=2 DoOrth=T DoCkMO=T.
 Generating alternative initial guess.
 ExpMin= 1.03D-01 ExpMax= 1.53D+04 ExpMxC= 5.22D+02 IAcc=2 IRadAn=         4 AccDes= 0.00D+00
 Harris functional with IExCor= 1009 and IRadAn=       4 diagonalized for initial guess.
 HarFok:  IExCor= 1009 AccDes= 0.00D+00 IRadAn=         4 IDoV= 1 UseB2=F ITyADJ=14
 ICtDFT=  3500011 ScaDFX=  1.000000  1.000000  1.000000  1.000000
 FoFCou: FMM=F IPFlag=           0 FMFlag=      100000 FMFlg1=           0
         NFxFlg=           0 DoJE=T BraDBF=F KetDBF=T FulRan=T
         wScrn=  0.000000 ICntrl=       500 IOpCl=  0 I1Cent=   200000004 NGrid=           0
         NMat0=    1 NMatS0=      1 NMatT0=    0 NMatD0=    1 NMtDS0=    0 NMtDT0=    0
 Petite list used in FoFCou.
 Harris En= -155.003204898517    
 Leave Link  401 at Sat Aug 10 04:23:53 2019, MaxMem=   671088640 cpu:              10.3 elap:               0.5
 (Enter /shared/centos7/gaussian/g16/l502.exe)
 Keep R1 ints in memory in canonical form, NReq=136340328.
 FoFCou: FMM=F IPFlag=           0 FMFlag=           0 FMFlg1=           0
         NFxFlg=           0 DoJE=F BraDBF=F KetDBF=F FulRan=T
         wScrn=  0.000000 ICntrl=       600 IOpCl=  0 I1Cent=           0 NGrid=           0
         NMat0=    1 NMatS0=  15225 NMatT0=    0 NMatD0=    1 NMtDS0=    0 NMtDT0=    0
 Symmetry not used in FoFCou.
 Two-electron integral symmetry not used.
 Closed shell SCF:
 Using DIIS extrapolation, IDIIS=  1040.
 NGot=   671088640 LenX=   555098904 LenY=   555060438
 Requested convergence on RMS density matrix=1.00D-08 within 128 cycles.
 Requested convergence on MAX density matrix=1.00D-06.
 Requested convergence on             energy=1.00D-06.
 No special actions if energy rises.
 Integral accuracy reduced to 1.0D-05 until final iterations.

 Cycle   1  Pass 0  IDiag  1:
 E= -155.023575963035    
 DIIS: error= 2.65D-03 at cycle   1 NSaved=   1.
 NSaved= 1 IEnMin= 1 EnMin= -155.023575963035     IErMin= 1 ErrMin= 2.65D-03
 ErrMax= 2.65D-03  0.00D+00 EMaxC= 1.00D-01 BMatC= 1.51D-03 BMatP= 1.51D-03
 IDIUse=3 WtCom= 9.74D-01 WtEn= 2.65D-02
 Coeff-Com:  0.100D+01
 Coeff-En:   0.100D+01
 Coeff:      0.100D+01
 Gap=     0.985 Goal=   None    Shift=    0.000
 GapD=    0.985 DampG=2.000 DampE=1.000 DampFc=2.0000 IDamp=-1.
 RMSDP=2.09D-04 MaxDP=6.04D-03              OVMax= 1.22D-02

 Cycle   2  Pass 0  IDiag  1:
 E= -155.024934682870     Delta-E=       -0.001358719835 Rises=F Damp=F
 DIIS: error= 4.04D-04 at cycle   2 NSaved=   2.
 NSaved= 2 IEnMin= 2 EnMin= -155.024934682870     IErMin= 2 ErrMin= 4.04D-04
 ErrMax= 4.04D-04  0.00D+00 EMaxC= 1.00D-01 BMatC= 2.98D-05 BMatP= 1.51D-03
 IDIUse=3 WtCom= 9.96D-01 WtEn= 4.04D-03
 Coeff-Com: -0.908D-01 0.109D+01
 Coeff-En:   0.000D+00 0.100D+01
 Coeff:     -0.904D-01 0.109D+01
 Gap=     0.416 Goal=   None    Shift=    0.000
 RMSDP=4.48D-05 MaxDP=1.62D-03 DE=-1.36D-03 OVMax= 3.32D-03

 Cycle   3  Pass 0  IDiag  1:
 E= -155.024981842954     Delta-E=       -0.000047160084 Rises=F Damp=F
 DIIS: error= 1.79D-04 at cycle   3 NSaved=   3.
 NSaved= 3 IEnMin= 3 EnMin= -155.024981842954     IErMin= 3 ErrMin= 1.79D-04
 ErrMax= 1.79D-04  0.00D+00 EMaxC= 1.00D-01 BMatC= 4.78D-06 BMatP= 2.98D-05
 IDIUse=3 WtCom= 9.98D-01 WtEn= 1.79D-03
 Coeff-Com: -0.324D-01 0.274D+00 0.759D+00
 Coeff-En:   0.000D+00 0.000D+00 0.100D+01
 Coeff:     -0.323D-01 0.273D+00 0.759D+00
 Gap=     0.416 Goal=   None    Shift=    0.000
 RMSDP=1.15D-05 MaxDP=3.01D-04 DE=-4.72D-05 OVMax= 7.34D-04

 Cycle   4  Pass 0  IDiag  1:
 E= -155.024986179720     Delta-E=       -0.000004336765 Rises=F Damp=F
 DIIS: error= 7.77D-05 at cycle   4 NSaved=   4.
 NSaved= 4 IEnMin= 4 EnMin= -155.024986179720     IErMin= 4 ErrMin= 7.77D-05
 ErrMax= 7.77D-05  0.00D+00 EMaxC= 1.00D-01 BMatC= 1.21D-06 BMatP= 4.78D-06
 IDIUse=1 WtCom= 1.00D+00 WtEn= 0.00D+00
 Coeff-Com:  0.328D-02-0.867D-01 0.300D+00 0.784D+00
 Coeff:      0.328D-02-0.867D-01 0.300D+00 0.784D+00
 Gap=     0.416 Goal=   None    Shift=    0.000
 RMSDP=5.97D-06 MaxDP=1.63D-04 DE=-4.34D-06 OVMax= 4.67D-04

 Initial convergence to 1.0D-05 achieved.  Increase integral accuracy.
 Cycle   5  Pass 1  IDiag  1:
 E= -155.024972356125     Delta-E=        0.000013823595 Rises=F Damp=F
 DIIS: error= 2.02D-05 at cycle   1 NSaved=   1.
 NSaved= 1 IEnMin= 1 EnMin= -155.024972356125     IErMin= 1 ErrMin= 2.02D-05
 ErrMax= 2.02D-05  0.00D+00 EMaxC= 1.00D-01 BMatC= 1.89D-07 BMatP= 1.89D-07
 IDIUse=1 WtCom= 1.00D+00 WtEn= 0.00D+00
 Coeff-Com:  0.100D+01
 Coeff:      0.100D+01
 Gap=     0.416 Goal=   None    Shift=    0.000
 RMSDP=5.97D-06 MaxDP=1.63D-04 DE= 1.38D-05 OVMax= 1.57D-04

 Cycle   6  Pass 1  IDiag  1:
 E= -155.024972443705     Delta-E=       -0.000000087580 Rises=F Damp=F
 DIIS: error= 1.72D-05 at cycle   2 NSaved=   2.
 NSaved= 2 IEnMin= 2 EnMin= -155.024972443705     IErMin= 2 ErrMin= 1.72D-05
 ErrMax= 1.72D-05  0.00D+00 EMaxC= 1.00D-01 BMatC= 8.27D-08 BMatP= 1.89D-07
 IDIUse=1 WtCom= 1.00D+00 WtEn= 0.00D+00
 Coeff-Com:  0.360D+00 0.640D+00
 Coeff:      0.360D+00 0.640D+00
 Gap=     0.416 Goal=   None    Shift=    0.000
 RMSDP=1.27D-06 MaxDP=3.61D-05 DE=-8.76D-08 OVMax= 7.20D-05

 Cycle   7  Pass 1  IDiag  1:
 E= -155.024972488923     Delta-E=       -0.000000045219 Rises=F Damp=F
 DIIS: error= 7.20D-06 at cycle   3 NSaved=   3.
 NSaved= 3 IEnMin= 3 EnMin= -155.024972488923     IErMin= 3 ErrMin= 7.20D-06
 ErrMax= 7.20D-06  0.00D+00 EMaxC= 1.00D-01 BMatC= 1.49D-08 BMatP= 8.27D-08
 IDIUse=1 WtCom= 1.00D+00 WtEn= 0.00D+00
 Coeff-Com: -0.396D-01 0.284D+00 0.756D+00
 Coeff:     -0.396D-01 0.284D+00 0.756D+00
 Gap=     0.416 Goal=   None    Shift=    0.000
 RMSDP=4.90D-07 MaxDP=1.17D-05 DE=-4.52D-08 OVMax= 3.33D-05

 Cycle   8  Pass 1  IDiag  1:
 E= -155.024972499360     Delta-E=       -0.000000010437 Rises=F Damp=F
 DIIS: error= 1.03D-06 at cycle   4 NSaved=   4.
 NSaved= 4 IEnMin= 4 EnMin= -155.024972499360     IErMin= 4 ErrMin= 1.03D-06
 ErrMax= 1.03D-06  0.00D+00 EMaxC= 1.00D-01 BMatC= 1.62D-10 BMatP= 1.49D-08
 IDIUse=1 WtCom= 1.00D+00 WtEn= 0.00D+00
 Coeff-Com: -0.156D-01 0.409D-01 0.144D+00 0.831D+00
 Coeff:     -0.156D-01 0.409D-01 0.144D+00 0.831D+00
 Gap=     0.416 Goal=   None    Shift=    0.000
 RMSDP=1.00D-07 MaxDP=4.07D-06 DE=-1.04D-08 OVMax= 8.92D-06

 Cycle   9  Pass 1  IDiag  1:
 E= -155.024972499591     Delta-E=       -0.000000000230 Rises=F Damp=F
 DIIS: error= 5.27D-07 at cycle   5 NSaved=   5.
 NSaved= 5 IEnMin= 5 EnMin= -155.024972499591     IErMin= 5 ErrMin= 5.27D-07
 ErrMax= 5.27D-07  0.00D+00 EMaxC= 1.00D-01 BMatC= 3.44D-11 BMatP= 1.62D-10
 IDIUse=1 WtCom= 1.00D+00 WtEn= 0.00D+00
 Coeff-Com:  0.188D-02-0.363D-01-0.876D-01 0.234D+00 0.888D+00
 Coeff:      0.188D-02-0.363D-01-0.876D-01 0.234D+00 0.888D+00
 Gap=     0.416 Goal=   None    Shift=    0.000
 RMSDP=5.88D-08 MaxDP=2.51D-06 DE=-2.30D-10 OVMax= 5.40D-06

 Cycle  10  Pass 1  IDiag  1:
 E= -155.024972499650     Delta-E=       -0.000000000059 Rises=F Damp=F
 DIIS: error= 1.15D-07 at cycle   6 NSaved=   6.
 NSaved= 6 IEnMin= 6 EnMin= -155.024972499650     IErMin= 6 ErrMin= 1.15D-07
 ErrMax= 1.15D-07  0.00D+00 EMaxC= 1.00D-01 BMatC= 2.18D-12 BMatP= 3.44D-11
 IDIUse=1 WtCom= 1.00D+00 WtEn= 0.00D+00
 Coeff-Com:  0.157D-02-0.977D-02-0.281D-01-0.319D-01 0.212D+00 0.856D+00
 Coeff:      0.157D-02-0.977D-02-0.281D-01-0.319D-01 0.212D+00 0.856D+00
 Gap=     0.416 Goal=   None    Shift=    0.000
 RMSDP=1.37D-08 MaxDP=5.78D-07 DE=-5.91D-11 OVMax= 1.28D-06

 Cycle  11  Pass 1  IDiag  1:
 E= -155.024972499653     Delta-E=       -0.000000000003 Rises=F Damp=F
 DIIS: error= 1.18D-08 at cycle   7 NSaved=   7.
 NSaved= 7 IEnMin= 7 EnMin= -155.024972499653     IErMin= 7 ErrMin= 1.18D-08
 ErrMax= 1.18D-08  0.00D+00 EMaxC= 1.00D-01 BMatC= 4.23D-14 BMatP= 2.18D-12
 IDIUse=1 WtCom= 1.00D+00 WtEn= 0.00D+00
 Coeff-Com: -0.224D-04 0.123D-02 0.288D-02-0.149D-01-0.281D-01 0.463D-01
 Coeff-Com:  0.993D+00
 Coeff:     -0.224D-04 0.123D-02 0.288D-02-0.149D-01-0.281D-01 0.463D-01
 Coeff:      0.993D+00
 Gap=     0.416 Goal=   None    Shift=    0.000
 RMSDP=2.68D-09 MaxDP=1.04D-07 DE=-3.10D-12 OVMax= 2.28D-07

[...]
           D10       -178.74052-178.84048-178.96503-179.08848-179.21360
           D11        -58.46429 -58.41852 -58.44614 -58.52857 -58.66492
           D12         61.10111  61.10130  61.10151  61.10171  61.10198
                          26        27        28        29        30
     Eigenvalues --    -0.02606  -0.02568  -0.02523  -0.02482  -0.02456
           R1           1.41694   1.41797   1.41915   1.42019   1.42094
           R2           0.95942   0.95871   0.95796   0.95727   0.95682
           R3           1.51768   1.51783   1.51758   1.51693   1.51594
           R4           1.08934   1.08965   1.09022   1.09101   1.09197
           R5           1.09450   1.09399   1.09346   1.09300   1.09273
           R6           1.08904   1.08902   1.08905   1.08911   1.08919
           R7           1.09040   1.09050   1.09054   1.09050   1.09041
           R8           1.09127   1.09085   1.09044   1.09005   1.08970
           A1         108.58625 108.78690 109.01879 109.23134 109.40134
           A2         112.09939 111.84503 111.50266 111.07288 110.55530
           A3         105.84969 106.19980 106.66671 107.21888 107.82176
           A4         110.81062 110.83066 110.85400 110.88254 110.91597
           A5         110.31971 110.29369 110.23847 110.16780 110.09442
           A6         110.06778 109.95791 109.93577 110.00385 110.15013
           A7         107.51887 107.56596 107.51850 107.39034 107.21869
           A8         110.14645 110.07790 110.01563 109.94971 109.89662
           A9         110.95310 110.94967 110.93684 110.92838 110.91068
           A10        110.66969 110.64302 110.60944 110.56894 110.52159
           A11        108.76611 108.73724 108.69170 108.64080 108.59747
           A12        108.17565 108.13769 108.11425 108.10131 108.10003
           A13        108.04718 108.21551 108.39600 108.57730 108.74264
           D1          73.18873  82.87801  92.62271 102.42783 112.27759
           D2        -166.48754-156.75216-146.97581-137.15888-127.32623
           D3         -50.21362 -40.21366 -30.21363 -20.21364 -10.21361
           D4          56.85589  56.98204  57.11711  57.24621  57.39175
           D5         177.34795 177.39052 177.41938 177.43627 177.48177
           D6         -62.71665 -62.48249 -62.25743 -62.04498 -61.83464
           D7         -60.83436 -60.96815 -61.16372 -61.40561 -61.63630
           D8          59.65771  59.44033  59.13855  58.78445  58.45371
           D9         179.59311 179.56732 179.46175 179.30321 179.13731
           D10       -179.32525-179.43304-179.52281-179.60592-179.67048
           D11        -58.83319 -59.02456 -59.22054 -59.41586 -59.58047
           D12         61.10221  61.10243  61.10265  61.10290  61.10312
                          31        32        33        34        35
     Eigenvalues --    -0.02451  -0.02468  -0.02502  -0.02546  -0.02588
           R1           1.42120   1.42091   1.42030   1.41937   1.41857
           R2           0.95664   0.95683   0.95724   0.95781   0.95837
           R3           1.51482   1.51366   1.51263   1.51187   1.51140
           R4           1.09293   1.09387   1.09461   1.09517   1.09534
           R5           1.09265   1.09283   1.09319   1.09368   1.09420
           R6           1.08927   1.08934   1.08937   1.08935   1.08929
           R7           1.09025   1.09004   1.08984   1.08965   1.08951
           R8           1.08941   1.08919   1.08904   1.08896   1.08893
           A1         109.46774 109.48112 109.38293 109.27062 109.14010
           A2         110.00950 109.42608 108.89170 108.41824 108.04391
           A3         108.42861 109.01121 109.51330 109.94343 110.26416
           A4         110.93074 110.94217 110.92934 110.90039 110.86027
           A5         110.03004 109.98136 109.95551 109.94518 109.96227
           A6         110.30432 110.47216 110.56974 110.58322 110.48643
           A7         107.07473 106.96783 106.96277 107.04957 107.23398
           A8         109.86550 109.84293 109.85149 109.88245 109.93299
           A9         110.88960 110.86739 110.83716 110.79951 110.76498
           A10        110.46508 110.40925 110.34988 110.29208 110.22845
           A11        108.56232 108.55043 108.55604 108.58181 108.63132
           A12        108.10531 108.12018 108.14985 108.19217 108.24326
           A13        108.88364 108.98379 109.03236 109.03181 108.98177
           D1         122.10807 131.93138 141.68802 151.37479 160.98777
           D2        -117.52332-107.75343 -98.04855 -88.40608 -78.81200
           D3          -0.21358   9.78632  19.78637  29.78637  39.78635
           D4          57.59000  57.82495  58.13703  58.50958  58.91468
           D5         177.60249 177.79383 178.09921 178.49992 178.97739
           D6         -61.58808 -61.32263 -61.01569 -60.67886 -60.32887
           D7         -61.80645 -61.89574 -61.85304 -61.70846 -61.47479
           D8          58.20603  58.07314  58.10914  58.28188  58.58792
           D9         179.01547 178.95668 178.99424 179.10310 179.28166
           D10       -179.71850-179.74879-179.74337-179.70742-179.65205
           D11        -59.70601 -59.77991 -59.78120 -59.71708 -59.58935
           D12         61.10342  61.10363  61.10390  61.10415  61.10440
                          36        37
     Eigenvalues --    -0.02618  -0.02629
           R1           1.41796   1.41774
           R2           0.95880   0.95897
           R3           1.51126   1.51149
           R4           1.09528   1.09493
           R5           1.09464   1.09496
           R6           1.08918   1.08906
           R7           1.08944   1.08944
           R8           1.08898   1.08906
           A1         109.06291 109.04488
           A2         107.77458 107.64572
           A3         110.51591 110.68298
           A4         110.79087 110.68818
           A5         110.00007 110.05001
           A6         110.29251 110.03282
           A7         107.48101 107.75248
           A8         110.00853 110.09738
           A9         110.73497 110.71414
           A10        110.15750 110.08172
           A11        108.69688 108.77493
           A12        108.29594 108.34276
           A13        108.89122 108.77533
           D1         170.53566-179.92388
           D2         -69.23591 -59.61620
           D3          49.78637  59.78635
           D4          59.35504  59.77986
           D5         179.52926-179.90412
           D6         -59.95659 -59.59780
           D7         -61.19801 -60.92663
           D8          58.97621  59.38939
           D9         179.49036 179.69572
           D10       -179.58371-179.51742
           D11        -59.40949 -59.20139
           D12         61.10467  61.10493
 Largest change from initial coordinates is atom    8       0.000 Angstoms.
 GradGradGradGradGradGradGradGradGradGradGradGradGradGradGradGradGradGrad

 Leave Link  103 at Sat Aug 10 04:46:49 2019, MaxMem=   671088640 cpu:               0.3 elap:               0.0
 (Enter /shared/centos7/gaussian/g16/l202.exe)
                          Input orientation:                          
 ---------------------------------------------------------------------
 Center     Atomic      Atomic             Coordinates (Angstroms)
 Number     Number       Type             X           Y           Z
 ---------------------------------------------------------------------
      1          8           0        1.560653    0.430508   -0.094490
      2          6           0        0.483155   -0.487880   -0.020089
      3          6           0        1.064973   -1.855509    0.255043
      4          1           0       -0.209902   -0.206957    0.779672
      5          1           0       -0.079067   -0.501521   -0.959584
      6          1           0        1.617284   -1.845313    1.193601
      7          1           0        0.275953   -2.603858    0.320623
      8          1           0        1.750324   -2.137744   -0.542882
      9          1           0        1.213080    1.307323   -0.267746
 ---------------------------------------------------------------------
                    Distance matrix (angstroms):
                    1          2          3          4          5
     1  O    0.000000
     2  C    1.417735   0.000000
     3  C    2.365110   1.511495   0.000000
     4  H    2.074942   1.094927   2.149015   0.000000
     5  H    2.075029   1.094957   2.148820   1.768868   0.000000
     6  H    2.615674   2.145207   1.089056   2.488807   3.052800
     7  H    3.321167   2.153225   1.089441   2.488356   2.486924
     8  H    2.613991   2.145012   1.089059   3.052798   2.489485
     9  H    0.958972   1.953683   3.209166   2.327016   2.328132
                    6          7          8          9
     6  H    0.000000
     7  H    1.771060   0.000000
     8  H    1.765953   1.771066   0.000000
     9  H    3.498289   4.064692   3.497544   0.000000
 Stoichiometry    C2H6O
 Framework group  C1[X(C2H6O)]
 Deg. of freedom    21
 Full point group                 C1      NOp   1
 RotChk:  IX=0 Diff= 8.37D-16
 Largest Abelian subgroup         C1      NOp   1
 Largest concise Abelian subgroup C1      NOp   1
                         Standard orientation:                         
 ---------------------------------------------------------------------
 Center     Atomic      Atomic             Coordinates (Angstroms)
 Number     Number       Type             X           Y           Z
 ---------------------------------------------------------------------
      1          8           0        1.142933   -0.395051   -0.000147
      2          6           0        0.084669    0.548375   -0.000038
      3          6           0       -1.215830   -0.221896    0.000080
      4          1           0        0.140077    1.191577    0.884318
      5          1           0        0.139644    1.191450   -0.884550
      6          1           0       -1.275394   -0.855520    0.883831
      7          1           0       -2.066679    0.458497   -0.001539
      8          1           0       -1.273866   -0.857824   -0.882120
      9          1           0        1.979724    0.073356    0.000981
 ---------------------------------------------------------------------
 Rotational constants (GHZ):          35.3351533           9.4663863           8.2318998
 Leave Link  202 at Sat Aug 10 04:46:49 2019, MaxMem=   671088640 cpu:               0.6 elap:               0.1
 (Enter /shared/centos7/gaussian/g16/l601.exe)
 Copying SCF densities to generalized density rwf, IOpCl= 0 IROHF=0.

 **********************************************************************

            Population analysis using the SCF density.

 **********************************************************************

 Orbital symmetries:
       Occupied  (A) (A) (A) (A) (A) (A) (A) (A) (A) (A) (A) (A)
                 (A)
       Virtual   (A) (A) (A) (A) (A) (A) (A) (A) (A) (A) (A) (A)
                 (A) (A) (A) (A) (A) (A) (A) (A) (A) (A) (A) (A)
                 (A) (A) (A) (A) (A) (A) (A) (A) (A) (A) (A) (A)
                 (A) (A) (A) (A) (A) (A) (A) (A) (A) (A) (A) (A)
                 (A) (A) (A) (A) (A) (A) (A) (A) (A) (A) (A) (A)
                 (A) (A) (A) (A) (A) (A) (A) (A) (A) (A) (A) (A)
                 (A) (A) (A) (A) (A) (A) (A) (A) (A) (A) (A) (A)
                 (A) (A) (A) (A) (A) (A) (A) (A) (A) (A) (A) (A)
                 (A) (A) (A) (A) (A) (A) (A) (A) (A) (A) (A) (A)
                 (A) (A) (A) (A) (A) (A) (A) (A) (A) (A) (A) (A)
                 (A) (A) (A) (A) (A) (A) (A) (A) (A) (A) (A) (A)
                 (A) (A) (A) (A) (A) (A) (A) (A) (A) (A) (A) (A)
                 (A) (A) (A) (A) (A) (A) (A) (A) (A) (A) (A) (A)
                 (A) (A) (A) (A) (A)
 The electronic state is 1-A.
 Alpha  occ. eigenvalues --  -19.61474 -10.58030 -10.52125  -1.14023  -0.84634
 Alpha  occ. eigenvalues --   -0.69647  -0.59387  -0.54094  -0.47439  -0.44612
 Alpha  occ. eigenvalues --   -0.43227  -0.39847  -0.34649
 Alpha virt. eigenvalues --    0.06501   0.09590   0.12841   0.12974   0.14884
 Alpha virt. eigenvalues --    0.17214   0.21370   0.23207   0.29061   0.30898
 Alpha virt. eigenvalues --    0.35173   0.37231   0.41320   0.42185   0.46702
 Alpha virt. eigenvalues --    0.49471   0.50739   0.52834   0.52960   0.53364
 Alpha virt. eigenvalues --    0.59409   0.60143   0.61401   0.65267   0.69850
 Alpha virt. eigenvalues --    0.73064   0.78523   0.80262   0.84334   0.88359
 Alpha virt. eigenvalues --    0.93789   0.98991   1.00996   1.07385   1.09308
 Alpha virt. eigenvalues --    1.10140   1.11275   1.12390   1.13541   1.17976
 Alpha virt. eigenvalues --    1.20523   1.21780   1.24765   1.27592   1.31845
 Alpha virt. eigenvalues --    1.33875   1.37413   1.41367   1.41830   1.48274
 Alpha virt. eigenvalues --    1.51978   1.56419   1.60106   1.67965   1.87955
 Alpha virt. eigenvalues --    1.98177   2.02992   2.09343   2.14651   2.21809
 Alpha virt. eigenvalues --    2.29919   2.32487   2.40621   2.41228   2.42286
 Alpha virt. eigenvalues --    2.49672   2.60031   2.60361   2.68463   2.76848
 Alpha virt. eigenvalues --    2.81370   2.83000   2.87604   2.87661   2.95025
 Alpha virt. eigenvalues --    2.95637   2.96947   3.00959   3.02046   3.04051
 Alpha virt. eigenvalues --    3.06799   3.09652   3.11995   3.13826   3.13981
 Alpha virt. eigenvalues --    3.21732   3.24092   3.30436   3.38578   3.39019
 Alpha virt. eigenvalues --    3.40407   3.42134   3.43067   3.46968   3.48013
 Alpha virt. eigenvalues --    3.51076   3.54563   3.60360   3.67659   3.68972
 Alpha virt. eigenvalues --    3.76303   3.76717   3.80058   3.80809   3.84519
 Alpha virt. eigenvalues --    3.85208   3.88121   3.88524   3.95079   3.99007
 Alpha virt. eigenvalues --    4.01542   4.01687   4.04030   4.06964   4.08992
 Alpha virt. eigenvalues --    4.09042   4.19488   4.21615   4.28588   4.29462
 Alpha virt. eigenvalues --    4.32511   4.35737   4.44035   4.48591   4.65298
 Alpha virt. eigenvalues --    4.69049   4.69696   4.78259   4.79489   4.81981
 Alpha virt. eigenvalues --    4.85180   4.91475   4.93430   4.99814   5.16094
 Alpha virt. eigenvalues --    5.18089   5.26068   5.27275   5.28908   5.32238
 Alpha virt. eigenvalues --    5.38722   5.40801   5.45472   5.54521   5.70639
 Alpha virt. eigenvalues --    5.78990   5.84071   5.84494   5.98076   6.13648
 Alpha virt. eigenvalues --    6.49157   6.65298   6.69462   6.71814   6.88079
 Alpha virt. eigenvalues --    6.96506   7.14468   7.39798  11.84327  12.53906
 Alpha virt. eigenvalues --   13.47045
          Condensed to atoms (all electrons):
               1          2          3          4          5          6
     1  O    7.871957   0.337591  -0.048273  -0.052587  -0.052590   0.003315
     2  C    0.337591   4.683913   0.310262   0.403382   0.403375  -0.032270
     3  C   -0.048273   0.310262   4.960398  -0.041958  -0.042096   0.395728
     4  H   -0.052587   0.403382  -0.041958   0.715108  -0.086262  -0.014246
     5  H   -0.052590   0.403375  -0.042096  -0.086262   0.715227   0.011042
     6  H    0.003315  -0.032270   0.395728  -0.014246   0.011042   0.592496
     7  H    0.003954  -0.032342   0.381176  -0.000428  -0.000430  -0.032375
     8  H    0.003315  -0.032282   0.395692   0.011047  -0.014218  -0.038491
     9  H    0.322285  -0.035516   0.009067  -0.006773  -0.006735  -0.000067
               7          8          9
     1  O    0.003954   0.003315   0.322285
     2  C   -0.032342  -0.032282  -0.035516
     3  C    0.381176   0.395692   0.009067
     4  H   -0.000428   0.011047  -0.006773
     5  H   -0.000430  -0.014218  -0.006735
     6  H   -0.032375  -0.038491  -0.000067
     7  H    0.618668  -0.032365  -0.000915
     8  H   -0.032365   0.592466  -0.000068
     9  H   -0.000915  -0.000068   0.473877
 Mulliken charges:
               1
     1  O   -0.388966
     2  C   -0.006112
     3  C   -0.319997
     4  H    0.072717
     5  H    0.072686
     6  H    0.114868
     7  H    0.095057
     8  H    0.114905
     9  H    0.244843
 Sum of Mulliken charges =  -0.00000
 Mulliken charges with hydrogens summed into heavy atoms:
               1
     1  O   -0.144123
     2  C    0.139291
     3  C    0.004832
 Electronic spatial extent (au):  <R**2>=            192.4724
 Charge=             -0.0000 electrons
 Dipole moment (field-independent basis, Debye):
    X=              0.2128    Y=              1.5536    Z=              0.0019  Tot=              1.5681
 Quadrupole moment (field-independent basis, Debye-Ang):
   XX=            -17.0674   YY=            -20.6937   ZZ=            -20.1713
   XY=              1.8499   XZ=              0.0049   YZ=              0.0006
 Traceless Quadrupole moment (field-independent basis, Debye-Ang):
   XX=              2.2434   YY=             -1.3829   ZZ=             -0.8605
   XY=              1.8499   XZ=              0.0049   YZ=              0.0006
 Octapole moment (field-independent basis, Debye-Ang**2):
  XXX=             15.9263  YYY=             -0.6814  ZZZ=              0.0033  XYY=              0.7996
  XXY=              2.5849  XXZ=              0.0085  XZZ=              1.3830  YZZ=             -0.3124
  YYZ=             -0.0017  XYZ=              0.0017
 Hexadecapole moment (field-independent basis, Debye-Ang**3):
 XXXX=           -132.7455 YYYY=            -58.8500 ZZZZ=            -33.8220 XXXY=             -0.3442
 XXXZ=              0.0241 YYYX=             -1.0156 YYYZ=              0.0049 ZZZX=             -0.0020
 ZZZY=             -0.0007 XXYY=            -36.2526 XXZZ=            -33.1588 YYZZ=            -14.1167
 XXYZ=             -0.0029 YYXZ=              0.0034 ZZXY=              0.8347
 N-N= 8.209759500595D+01 E-N=-5.265689912866D+02  KE= 1.541799652996D+02
 No NMR shielding tensors so no spin-rotation constants.
 Leave Link  601 at Sat Aug 10 04:46:49 2019, MaxMem=   671088640 cpu:               3.5 elap:               0.2
 (Enter /shared/centos7/gaussian/g16/l9999.exe)
 1\1\GINC-C0153\Scan\RM062X\CC-pVTZ\C2H6O1\HARMS.N\10-Aug-2019\0\\#p m0
 62x/cc-pVTZ Opt=(CalcFC,ModRedun)\\Gaussian input prepared by ASE\\0,1
 \O,1.5606525024,0.4305084094,-0.0944900354\C,0.48315549,-0.4878804355,
 -0.020088982\C,1.064972823,-1.8555085001,0.2550433257\H,-0.2099021782,
 -0.2069567151,0.7796717502\H,-0.0790666596,-0.5015205955,-0.9595836394
 \H,1.6172840846,-1.8453129295,1.1936014348\H,0.2759526243,-2.603858176
 3,0.3206228226\H,1.7503244455,-2.1377436424,-0.5428822809\H,1.21308048
 01,1.3073225969,-0.2677458001\\Version=EM64L-G16RevA.03\State=1-A\HF=-
 155.0262931,-155.0261793,-155.0258651,-155.0254247,-155.0249711,-155.0
 246287,-155.0244952,-155.0246099,-155.0249395,-155.0253874,-155.025833
 4,-155.0261637,-155.0262978,-155.0262013,-155.0258964,-155.0254586,-15
 5.025008,-155.0246828,-155.0245921,-155.0247679,-155.0251523,-155.0256
 196,-155.0260277,-155.0262654,-155.0262756,-155.0260615,-155.0256812,-
 155.0252308,-155.0248236,-155.0245613,-155.0245087,-155.0246764,-155.0
 250221,-155.0254598,-155.0258814,-155.0261839,-155.0262932\RMSD=1.009e
 -09,5.364e-09,2.672e-09,7.260e-09,2.731e-09,1.922e-09,2.838e-09,8.242e
 -09,2.208e-09,2.781e-09,7.607e-09,2.398e-09,4.873e-09,2.688e-09,7.717e
 -09,6.148e-09,8.493e-09,2.494e-09,2.076e-09,6.806e-09,6.736e-09,6.017e
 -09,6.227e-09,9.237e-09,5.313e-09,4.535e-09,6.503e-09,4.358e-09,9.805e
 -09,4.735e-09,9.313e-09,7.913e-09,1.751e-09,5.436e-09,7.701e-09,8.342e
 -09,5.612e-09\PG=C01 [X(C2H6O1)]\\@


 AND THIS OUR LIFE, EXEMPT FROM PUBLIC HAUNT,
 FINDS TONGUES IN TREES, BOOKS IN THE RUNNING BROOKS,
 SERMONS IN STONES, AND GOOD IN EVERYTHING.
 I WOULD NOT CHANGE IT. -- W. SHAKESPEARE
 AS YOU LIKE IT, ACT II, SCENE 1.
 Job cpu time:       0 days  7 hours  6 minutes 50.2 seconds.
 Elapsed time:       0 days  0 hours 24 minutes 28.9 seconds.
 File lengths (MBytes):  RWF=    272 Int=      0 D2E=      0 Chk=     32 Scr=     32
 Normal termination of Gaussian 16 at Sat Aug 10 04:46:49 2019.
